%VERSION  VERSION_STAMP = V0001.000  DATE = 09/03/26  12:31:03
%FLAG TITLE
%FORMAT(20a4)
default_name
%FLAG POINTERS
%FORMAT(10I8)
   17640       2    6860   12740   13720   18620   29890   31850       0       0
   97020     490   12740   18620   31850       2       2       2       2       0
       0       0       0       0       0       0       0       0      36       0
       0
%FLAG ATOM_NAME
%FORMAT(20a4)
C1  C2  C3  C4  C5  H6  C7  C8  C9  C10 C11 H12 H13 C14 H15 C16 C17 H18 H19 H20 
C21 C22 H23 C24 C25 H26 C27 C28 H29 C30 C31 H32 C33 H34 H35 H36 C1  C2  C3  C4  
C5  H6  C7  C8  C9  C10 C11 H12 H13 C14 H15 C16 C17 H18 H19 H20 C21 C22 H23 C24 
C25 H26 C27 C28 H29 C30 C31 H32 C33 H34 H35 H36 C1  C2  C3  C4  C5  H6  C7  C8  
C9  C10 C11 H12 H13 C14 H15 C16 C17 H18 H19 H20 C21 C22 H23 C24 C25 H26 C27 C28 
H29 C30 C31 H32 C33 H34 H35 H36 C1  C2  C3  C4  C5  H6  C7  C8  C9  C10 C11 H12 
H13 C14 H15 C16 C17 H18 H19 H20 C21 C22 H23 C24 C25 H26 C27 C28 H29 C30 C31 H32 
C33 H34 H35 H36 C1  C2  C3  C4  C5  H6  C7  C8  C9  C10 C11 H12 H13 C14 H15 C16 
C17 H18 H19 H20 C21 C22 H23 C24 C25 H26 C27 C28 H29 C30 C31 H32 C33 H34 H35 H36 
C1  C2  C3  C4  C5  H6  C7  C8  C9  C10 C11 H12 H13 C14 H15 C16 C17 H18 H19 H20 
C21 C22 H23 C24 C25 H26 C27 C28 H29 C30 C31 H32 C33 H34 H35 H36 C1  C2  C3  C4  
C5  H6  C7  C8  C9  C10 C11 H12 H13 C14 H15 C16 C17 H18 H19 H20 C21 C22 H23 C24 
C25 H26 C27 C28 H29 C30 C31 H32 C33 H34 H35 H36 C1  C2  C3  C4  C5  H6  C7  C8  
C9  C10 C11 H12 H13 C14 H15 C16 C17 H18 H19 H20 C21 C22 H23 C24 C25 H26 C27 C28 
H29 C30 C31 H32 C33 H34 H35 H36 C1  C2  C3  C4  C5  H6  C7  C8  C9  C10 C11 H12 
H13 C14 H15 C16 C17 H18 H19 H20 C21 C22 H23 C24 C25 H26 C27 C28 H29 C30 C31 H32 
C33 H34 H35 H36 C1  C2  C3  C4  C5  H6  C7  C8  C9  C10 C11 H12 H13 C14 H15 C16 
C17 H18 H19 H20 C21 C22 H23 C24 C25 H26 C27 C28 H29 C30 C31 H32 C33 H34 H35 H36 
C1  C2  C3  C4  C5  H6  C7  C8  C9  C10 C11 H12 H13 C14 H15 C16 C17 H18 H19 H20 
C21 C22 H23 C24 C25 H26 C27 C28 H29 C30 C31 H32 C33 H34 H35 H36 C1  C2  C3  C4  
C5  H6  C7  C8  C9  C10 C11 H12 H13 C14 H15 C16 C17 H18 H19 H20 C21 C22 H23 C24 
C25 H26 C27 C28 H29 C30 C31 H32 C33 H34 H35 H36 C1  C2  C3  C4  C5  H6  C7  C8  
C9  C10 C11 H12 H13 C14 H15 C16 C17 H18 H19 H20 C21 C22 H23 C24 C25 H26 C27 C28 
H29 C30 C31 H32 C33 H34 H35 H36 C1  C2  C3  C4  C5  H6  C7  C8  C9  C10 C11 H12 
H13 C14 H15 C16 C17 H18 H19 H20 C21 C22 H23 C24 C25 H26 C27 C28 H29 C30 C31 H32 
C33 H34 H35 H36 C1  C2  C3  C4  C5  H6  C7  C8  C9  C10 C11 H12 H13 C14 H15 C16 
C17 H18 H19 H20 C21 C22 H23 C24 C25 H26 C27 C28 H29 C30 C31 H32 C33 H34 H35 H36 
C1  C2  C3  C4  C5  H6  C7  C8  C9  C10 C11 H12 H13 C14 H15 C16 C17 H18 H19 H20 
C21 C22 H23 C24 C25 H26 C27 C28 H29 C30 C31 H32 C33 H34 H35 H36 C1  C2  C3  C4  
C5  H6  C7  C8  C9  C10 C11 H12 H13 C14 H15 C16 C17 H18 H19 H20 C21 C22 H23 C24 
C25 H26 C27 C28 H29 C30 C31 H32 C33 H34 H35 H36 C1  C2  C3  C4  C5  H6  C7  C8  
C9  C10 C11 H12 H13 C14 H15 C16 C17 H18 H19 H20 C21 C22 H23 C24 C25 H26 C27 C28 
H29 C30 C31 H32 C33 H34 H35 H36 C1  C2  C3  C4  C5  H6  C7  C8  C9  C10 C11 H12 
H13 C14 H15 C16 C17 H18 H19 H20 C21 C22 H23 C24 C25 H26 C27 C28 H29 C30 C31 H32 
C33 H34 H35 H36 C1  C2  C3  C4  C5  H6  C7  C8  C9  C10 C11 H12 H13 C14 H15 C16 
C17 H18 H19 H20 C21 C22 H23 C24 C25 H26 C27 C28 H29 C30 C31 H32 C33 H34 H35 H36 
C1  C2  C3  C4  C5  H6  C7  C8  C9  C10 C11 H12 H13 C14 H15 C16 C17 H18 H19 H20 
C21 C22 H23 C24 C25 H26 C27 C28 H29 C30 C31 H32 C33 H34 H35 H36 C1  C2  C3  C4  
C5  H6  C7  C8  C9  C10 C11 H12 H13 C14 H15 C16 C17 H18 H19 H20 C21 C22 H23 C24 
C25 H26 C27 C28 H29 C30 C31 H32 C33 H34 H35 H36 C1  C2  C3  C4  C5  H6  C7  C8  
C9  C10 C11 H12 H13 C14 H15 C16 C17 H18 H19 H20 C21 C22 H23 C24 C25 H26 C27 C28 
H29 C30 C31 H32 C33 H34 H35 H36 C1  C2  C3  C4  C5  H6  C7  C8  C9  C10 C11 H12 
H13 C14 H15 C16 C17 H18 H19 H20 C21 C22 H23 C24 C25 H26 C27 C28 H29 C30 C31 H32 
C33 H34 H35 H36 C1  C2  C3  C4  C5  H6  C7  C8  C9  C10 C11 H12 H13 C14 H15 C16 
C17 H18 H19 H20 C21 C22 H23 C24 C25 H26 C27 C28 H29 C30 C31 H32 C33 H34 H35 H36 
C1  C2  C3  C4  C5  H6  C7  C8  C9  C10 C11 H12 H13 C14 H15 C16 C17 H18 H19 H20 
C21 C22 H23 C24 C25 H26 C27 C28 H29 C30 C31 H32 C33 H34 H35 H36 C1  C2  C3  C4  
C5  H6  C7  C8  C9  C10 C11 H12 H13 C14 H15 C16 C17 H18 H19 H20 C21 C22 H23 C24 
C25 H26 C27 C28 H29 C30 C31 H32 C33 H34 H35 H36 C1  C2  C3  C4  C5  H6  C7  C8  
C9  C10 C11 H12 H13 C14 H15 C16 C17 H18 H19 H20 C21 C22 H23 C24 C25 H26 C27 C28 
H29 C30 C31 H32 C33 H34 H35 H36 C1  C2  C3  C4  C5  H6  C7  C8  C9  C10 C11 H12 
H13 C14 H15 C16 C17 H18 H19 H20 C21 C22 H23 C24 C25 H26 C27 C28 H29 C30 C31 H32 
C33 H34 H35 H36 C1  C2  C3  C4  C5  H6  C7  C8  C9  C10 C11 H12 H13 C14 H15 C16 
C17 H18 H19 H20 C21 C22 H23 C24 C25 H26 C27 C28 H29 C30 C31 H32 C33 H34 H35 H36 
C1  C2  C3  C4  C5  H6  C7  C8  C9  C10 C11 H12 H13 C14 H15 C16 C17 H18 H19 H20 
C21 C22 H23 C24 C25 H26 C27 C28 H29 C30 C31 H32 C33 H34 H35 H36 C1  C2  C3  C4  
C5  H6  C7  C8  C9  C10 C11 H12 H13 C14 H15 C16 C17 H18 H19 H20 C21 C22 H23 C24 
C25 H26 C27 C28 H29 C30 C31 H32 C33 H34 H35 H36 C1  C2  C3  C4  C5  H6  C7  C8  
C9  C10 C11 H12 H13 C14 H15 C16 C17 H18 H19 H20 C21 C22 H23 C24 C25 H26 C27 C28 
H29 C30 C31 H32 C33 H34 H35 H36 C1  C2  C3  C4  C5  H6  C7  C8  C9  C10 C11 H12 
H13 C14 H15 C16 C17 H18 H19 H20 C21 C22 H23 C24 C25 H26 C27 C28 H29 C30 C31 H32 
C33 H34 H35 H36 C1  C2  C3  C4  C5  H6  C7  C8  C9  C10 C11 H12 H13 C14 H15 C16 
C17 H18 H19 H20 C21 C22 H23 C24 C25 H26 C27 C28 H29 C30 C31 H32 C33 H34 H35 H36 
C1  C2  C3  C4  C5  H6  C7  C8  C9  C10 C11 H12 H13 C14 H15 C16 C17 H18 H19 H20 
C21 C22 H23 C24 C25 H26 C27 C28 H29 C30 C31 H32 C33 H34 H35 H36 C1  C2  C3  C4  
C5  H6  C7  C8  C9  C10 C11 H12 H13 C14 H15 C16 C17 H18 H19 H20 C21 C22 H23 C24 
C25 H26 C27 C28 H29 C30 C31 H32 C33 H34 H35 H36 C1  C2  C3  C4  C5  H6  C7  C8  
C9  C10 C11 H12 H13 C14 H15 C16 C17 H18 H19 H20 C21 C22 H23 C24 C25 H26 C27 C28 
H29 C30 C31 H32 C33 H34 H35 H36 C1  C2  C3  C4  C5  H6  C7  C8  C9  C10 C11 H12 
H13 C14 H15 C16 C17 H18 H19 H20 C21 C22 H23 C24 C25 H26 C27 C28 H29 C30 C31 H32 
C33 H34 H35 H36 C1  C2  C3  C4  C5  H6  C7  C8  C9  C10 C11 H12 H13 C14 H15 C16 
C17 H18 H19 H20 C21 C22 H23 C24 C25 H26 C27 C28 H29 C30 C31 H32 C33 H34 H35 H36 
C1  C2  C3  C4  C5  H6  C7  C8  C9  C10 C11 H12 H13 C14 H15 C16 C17 H18 H19 H20 
C21 C22 H23 C24 C25 H26 C27 C28 H29 C30 C31 H32 C33 H34 H35 H36 C1  C2  C3  C4  
C5  H6  C7  C8  C9  C10 C11 H12 H13 C14 H15 C16 C17 H18 H19 H20 C21 C22 H23 C24 
C25 H26 C27 C28 H29 C30 C31 H32 C33 H34 H35 H36 C1  C2  C3  C4  C5  H6  C7  C8  
C9  C10 C11 H12 H13 C14 H15 C16 C17 H18 H19 H20 C21 C22 H23 C24 C25 H26 C27 C28 
H29 C30 C31 H32 C33 H34 H35 H36 C1  C2  C3  C4  C5  H6  C7  C8  C9  C10 C11 H12 
H13 C14 H15 C16 C17 H18 H19 H20 C21 C22 H23 C24 C25 H26 C27 C28 H29 C30 C31 H32 
C33 H34 H35 H36 C1  C2  C3  C4  C5  H6  C7  C8  C9  C10 C11 H12 H13 C14 H15 C16 
C17 H18 H19 H20 C21 C22 H23 C24 C25 H26 C27 C28 H29 C30 C31 H32 C33 H34 H35 H36 
C1  C2  C3  C4  C5  H6  C7  C8  C9  C10 C11 H12 H13 C14 H15 C16 C17 H18 H19 H20 
C21 C22 H23 C24 C25 H26 C27 C28 H29 C30 C31 H32 C33 H34 H35 H36 C1  C2  C3  C4  
C5  H6  C7  C8  C9  C10 C11 H12 H13 C14 H15 C16 C17 H18 H19 H20 C21 C22 H23 C24 
C25 H26 C27 C28 H29 C30 C31 H32 C33 H34 H35 H36 C1  C2  C3  C4  C5  H6  C7  C8  
C9  C10 C11 H12 H13 C14 H15 C16 C17 H18 H19 H20 C21 C22 H23 C24 C25 H26 C27 C28 
H29 C30 C31 H32 C33 H34 H35 H36 C1  C2  C3  C4  C5  H6  C7  C8  C9  C10 C11 H12 
H13 C14 H15 C16 C17 H18 H19 H20 C21 C22 H23 C24 C25 H26 C27 C28 H29 C30 C31 H32 
C33 H34 H35 H36 C1  C2  C3  C4  C5  H6  C7  C8  C9  C10 C11 H12 H13 C14 H15 C16 
C17 H18 H19 H20 C21 C22 H23 C24 C25 H26 C27 C28 H29 C30 C31 H32 C33 H34 H35 H36 
C1  C2  C3  C4  C5  H6  C7  C8  C9  C10 C11 H12 H13 C14 H15 C16 C17 H18 H19 H20 
C21 C22 H23 C24 C25 H26 C27 C28 H29 C30 C31 H32 C33 H34 H35 H36 C1  C2  C3  C4  
C5  H6  C7  C8  C9  C10 C11 H12 H13 C14 H15 C16 C17 H18 H19 H20 C21 C22 H23 C24 
C25 H26 C27 C28 H29 C30 C31 H32 C33 H34 H35 H36 C1  C2  C3  C4  C5  H6  C7  C8  
C9  C10 C11 H12 H13 C14 H15 C16 C17 H18 H19 H20 C21 C22 H23 C24 C25 H26 C27 C28 
H29 C30 C31 H32 C33 H34 H35 H36 C1  C2  C3  C4  C5  H6  C7  C8  C9  C10 C11 H12 
H13 C14 H15 C16 C17 H18 H19 H20 C21 C22 H23 C24 C25 H26 C27 C28 H29 C30 C31 H32 
C33 H34 H35 H36 C1  C2  C3  C4  C5  H6  C7  C8  C9  C10 C11 H12 H13 C14 H15 C16 
C17 H18 H19 H20 C21 C22 H23 C24 C25 H26 C27 C28 H29 C30 C31 H32 C33 H34 H35 H36 
C1  C2  C3  C4  C5  H6  C7  C8  C9  C10 C11 H12 H13 C14 H15 C16 C17 H18 H19 H20 
C21 C22 H23 C24 C25 H26 C27 C28 H29 C30 C31 H32 C33 H34 H35 H36 C1  C2  C3  C4  
C5  H6  C7  C8  C9  C10 C11 H12 H13 C14 H15 C16 C17 H18 H19 H20 C21 C22 H23 C24 
C25 H26 C27 C28 H29 C30 C31 H32 C33 H34 H35 H36 C1  C2  C3  C4  C5  H6  C7  C8  
C9  C10 C11 H12 H13 C14 H15 C16 C17 H18 H19 H20 C21 C22 H23 C24 C25 H26 C27 C28 
H29 C30 C31 H32 C33 H34 H35 H36 C1  C2  C3  C4  C5  H6  C7  C8  C9  C10 C11 H12 
H13 C14 H15 C16 C17 H18 H19 H20 C21 C22 H23 C24 C25 H26 C27 C28 H29 C30 C31 H32 
C33 H34 H35 H36 C1  C2  C3  C4  C5  H6  C7  C8  C9  C10 C11 H12 H13 C14 H15 C16 
C17 H18 H19 H20 C21 C22 H23 C24 C25 H26 C27 C28 H29 C30 C31 H32 C33 H34 H35 H36 
C1  C2  C3  C4  C5  H6  C7  C8  C9  C10 C11 H12 H13 C14 H15 C16 C17 H18 H19 H20 
C21 C22 H23 C24 C25 H26 C27 C28 H29 C30 C31 H32 C33 H34 H35 H36 C1  C2  C3  C4  
C5  H6  C7  C8  C9  C10 C11 H12 H13 C14 H15 C16 C17 H18 H19 H20 C21 C22 H23 C24 
C25 H26 C27 C28 H29 C30 C31 H32 C33 H34 H35 H36 C1  C2  C3  C4  C5  H6  C7  C8  
C9  C10 C11 H12 H13 C14 H15 C16 C17 H18 H19 H20 C21 C22 H23 C24 C25 H26 C27 C28 
H29 C30 C31 H32 C33 H34 H35 H36 C1  C2  C3  C4  C5  H6  C7  C8  C9  C10 C11 H12 
H13 C14 H15 C16 C17 H18 H19 H20 C21 C22 H23 C24 C25 H26 C27 C28 H29 C30 C31 H32 
C33 H34 H35 H36 C1  C2  C3  C4  C5  H6  C7  C8  C9  C10 C11 H12 H13 C14 H15 C16 
C17 H18 H19 H20 C21 C22 H23 C24 C25 H26 C27 C28 H29 C30 C31 H32 C33 H34 H35 H36 
C1  C2  C3  C4  C5  H6  C7  C8  C9  C10 C11 H12 H13 C14 H15 C16 C17 H18 H19 H20 
C21 C22 H23 C24 C25 H26 C27 C28 H29 C30 C31 H32 C33 H34 H35 H36 C1  C2  C3  C4  
C5  H6  C7  C8  C9  C10 C11 H12 H13 C14 H15 C16 C17 H18 H19 H20 C21 C22 H23 C24 
C25 H26 C27 C28 H29 C30 C31 H32 C33 H34 H35 H36 C1  C2  C3  C4  C5  H6  C7  C8  
C9  C10 C11 H12 H13 C14 H15 C16 C17 H18 H19 H20 C21 C22 H23 C24 C25 H26 C27 C28 
H29 C30 C31 H32 C33 H34 H35 H36 C1  C2  C3  C4  C5  H6  C7  C8  C9  C10 C11 H12 
H13 C14 H15 C16 C17 H18 H19 H20 C21 C22 H23 C24 C25 H26 C27 C28 H29 C30 C31 H32 
C33 H34 H35 H36 C1  C2  C3  C4  C5  H6  C7  C8  C9  C10 C11 H12 H13 C14 H15 C16 
C17 H18 H19 H20 C21 C22 H23 C24 C25 H26 C27 C28 H29 C30 C31 H32 C33 H34 H35 H36 
C1  C2  C3  C4  C5  H6  C7  C8  C9  C10 C11 H12 H13 C14 H15 C16 C17 H18 H19 H20 
C21 C22 H23 C24 C25 H26 C27 C28 H29 C30 C31 H32 C33 H34 H35 H36 C1  C2  C3  C4  
C5  H6  C7  C8  C9  C10 C11 H12 H13 C14 H15 C16 C17 H18 H19 H20 C21 C22 H23 C24 
C25 H26 C27 C28 H29 C30 C31 H32 C33 H34 H35 H36 C1  C2  C3  C4  C5  H6  C7  C8  
C9  C10 C11 H12 H13 C14 H15 C16 C17 H18 H19 H20 C21 C22 H23 C24 C25 H26 C27 C28 
H29 C30 C31 H32 C33 H34 H35 H36 C1  C2  C3  C4  C5  H6  C7  C8  C9  C10 C11 H12 
H13 C14 H15 C16 C17 H18 H19 H20 C21 C22 H23 C24 C25 H26 C27 C28 H29 C30 C31 H32 
C33 H34 H35 H36 C1  C2  C3  C4  C5  H6  C7  C8  C9  C10 C11 H12 H13 C14 H15 C16 
C17 H18 H19 H20 C21 C22 H23 C24 C25 H26 C27 C28 H29 C30 C31 H32 C33 H34 H35 H36 
C1  C2  C3  C4  C5  H6  C7  C8  C9  C10 C11 H12 H13 C14 H15 C16 C17 H18 H19 H20 
C21 C22 H23 C24 C25 H26 C27 C28 H29 C30 C31 H32 C33 H34 H35 H36 C1  C2  C3  C4  
C5  H6  C7  C8  C9  C10 C11 H12 H13 C14 H15 C16 C17 H18 H19 H20 C21 C22 H23 C24 
C25 H26 C27 C28 H29 C30 C31 H32 C33 H34 H35 H36 C1  C2  C3  C4  C5  H6  C7  C8  
C9  C10 C11 H12 H13 C14 H15 C16 C17 H18 H19 H20 C21 C22 H23 C24 C25 H26 C27 C28 
H29 C30 C31 H32 C33 H34 H35 H36 C1  C2  C3  C4  C5  H6  C7  C8  C9  C10 C11 H12 
H13 C14 H15 C16 C17 H18 H19 H20 C21 C22 H23 C24 C25 H26 C27 C28 H29 C30 C31 H32 
C33 H34 H35 H36 C1  C2  C3  C4  C5  H6  C7  C8  C9  C10 C11 H12 H13 C14 H15 C16 
C17 H18 H19 H20 C21 C22 H23 C24 C25 H26 C27 C28 H29 C30 C31 H32 C33 H34 H35 H36 
C1  C2  C3  C4  C5  H6  C7  C8  C9  C10 C11 H12 H13 C14 H15 C16 C17 H18 H19 H20 
C21 C22 H23 C24 C25 H26 C27 C28 H29 C30 C31 H32 C33 H34 H35 H36 C1  C2  C3  C4  
C5  H6  C7  C8  C9  C10 C11 H12 H13 C14 H15 C16 C17 H18 H19 H20 C21 C22 H23 C24 
C25 H26 C27 C28 H29 C30 C31 H32 C33 H34 H35 H36 C1  C2  C3  C4  C5  H6  C7  C8  
C9  C10 C11 H12 H13 C14 H15 C16 C17 H18 H19 H20 C21 C22 H23 C24 C25 H26 C27 C28 
H29 C30 C31 H32 C33 H34 H35 H36 C1  C2  C3  C4  C5  H6  C7  C8  C9  C10 C11 H12 
H13 C14 H15 C16 C17 H18 H19 H20 C21 C22 H23 C24 C25 H26 C27 C28 H29 C30 C31 H32 
C33 H34 H35 H36 C1  C2  C3  C4  C5  H6  C7  C8  C9  C10 C11 H12 H13 C14 H15 C16 
C17 H18 H19 H20 C21 C22 H23 C24 C25 H26 C27 C28 H29 C30 C31 H32 C33 H34 H35 H36 
C1  C2  C3  C4  C5  H6  C7  C8  C9  C10 C11 H12 H13 C14 H15 C16 C17 H18 H19 H20 
C21 C22 H23 C24 C25 H26 C27 C28 H29 C30 C31 H32 C33 H34 H35 H36 C1  C2  C3  C4  
C5  H6  C7  C8  C9  C10 C11 H12 H13 C14 H15 C16 C17 H18 H19 H20 C21 C22 H23 C24 
C25 H26 C27 C28 H29 C30 C31 H32 C33 H34 H35 H36 C1  C2  C3  C4  C5  H6  C7  C8  
C9  C10 C11 H12 H13 C14 H15 C16 C17 H18 H19 H20 C21 C22 H23 C24 C25 H26 C27 C28 
H29 C30 C31 H32 C33 H34 H35 H36 C1  C2  C3  C4  C5  H6  C7  C8  C9  C10 C11 H12 
H13 C14 H15 C16 C17 H18 H19 H20 C21 C22 H23 C24 C25 H26 C27 C28 H29 C30 C31 H32 
C33 H34 H35 H36 C1  C2  C3  C4  C5  H6  C7  C8  C9  C10 C11 H12 H13 C14 H15 C16 
C17 H18 H19 H20 C21 C22 H23 C24 C25 H26 C27 C28 H29 C30 C31 H32 C33 H34 H35 H36 
C1  C2  C3  C4  C5  H6  C7  C8  C9  C10 C11 H12 H13 C14 H15 C16 C17 H18 H19 H20 
C21 C22 H23 C24 C25 H26 C27 C28 H29 C30 C31 H32 C33 H34 H35 H36 C1  C2  C3  C4  
C5  H6  C7  C8  C9  C10 C11 H12 H13 C14 H15 C16 C17 H18 H19 H20 C21 C22 H23 C24 
C25 H26 C27 C28 H29 C30 C31 H32 C33 H34 H35 H36 C1  C2  C3  C4  C5  H6  C7  C8  
C9  C10 C11 H12 H13 C14 H15 C16 C17 H18 H19 H20 C21 C22 H23 C24 C25 H26 C27 C28 
H29 C30 C31 H32 C33 H34 H35 H36 C1  C2  C3  C4  C5  H6  C7  C8  C9  C10 C11 H12 
H13 C14 H15 C16 C17 H18 H19 H20 C21 C22 H23 C24 C25 H26 C27 C28 H29 C30 C31 H32 
C33 H34 H35 H36 C1  C2  C3  C4  C5  H6  C7  C8  C9  C10 C11 H12 H13 C14 H15 C16 
C17 H18 H19 H20 C21 C22 H23 C24 C25 H26 C27 C28 H29 C30 C31 H32 C33 H34 H35 H36 
C1  C2  C3  C4  C5  H6  C7  C8  C9  C10 C11 H12 H13 C14 H15 C16 C17 H18 H19 H20 
C21 C22 H23 C24 C25 H26 C27 C28 H29 C30 C31 H32 C33 H34 H35 H36 C1  C2  C3  C4  
C5  H6  C7  C8  C9  C10 C11 H12 H13 C14 H15 C16 C17 H18 H19 H20 C21 C22 H23 C24 
C25 H26 C27 C28 H29 C30 C31 H32 C33 H34 H35 H36 C1  C2  C3  C4  C5  H6  C7  C8  
C9  C10 C11 H12 H13 C14 H15 C16 C17 H18 H19 H20 C21 C22 H23 C24 C25 H26 C27 C28 
H29 C30 C31 H32 C33 H34 H35 H36 C1  C2  C3  C4  C5  H6  C7  C8  C9  C10 C11 H12 
H13 C14 H15 C16 C17 H18 H19 H20 C21 C22 H23 C24 C25 H26 C27 C28 H29 C30 C31 H32 
C33 H34 H35 H36 C1  C2  C3  C4  C5  H6  C7  C8  C9  C10 C11 H12 H13 C14 H15 C16 
C17 H18 H19 H20 C21 C22 H23 C24 C25 H26 C27 C28 H29 C30 C31 H32 C33 H34 H35 H36 
C1  C2  C3  C4  C5  H6  C7  C8  C9  C10 C11 H12 H13 C14 H15 C16 C17 H18 H19 H20 
C21 C22 H23 C24 C25 H26 C27 C28 H29 C30 C31 H32 C33 H34 H35 H36 C1  C2  C3  C4  
C5  H6  C7  C8  C9  C10 C11 H12 H13 C14 H15 C16 C17 H18 H19 H20 C21 C22 H23 C24 
C25 H26 C27 C28 H29 C30 C31 H32 C33 H34 H35 H36 C1  C2  C3  C4  C5  H6  C7  C8  
C9  C10 C11 H12 H13 C14 H15 C16 C17 H18 H19 H20 C21 C22 H23 C24 C25 H26 C27 C28 
H29 C30 C31 H32 C33 H34 H35 H36 C1  C2  C3  C4  C5  H6  C7  C8  C9  C10 C11 H12 
H13 C14 H15 C16 C17 H18 H19 H20 C21 C22 H23 C24 C25 H26 C27 C28 H29 C30 C31 H32 
C33 H34 H35 H36 C1  C2  C3  C4  C5  H6  C7  C8  C9  C10 C11 H12 H13 C14 H15 C16 
C17 H18 H19 H20 C21 C22 H23 C24 C25 H26 C27 C28 H29 C30 C31 H32 C33 H34 H35 H36 
C1  C2  C3  C4  C5  H6  C7  C8  C9  C10 C11 H12 H13 C14 H15 C16 C17 H18 H19 H20 
C21 C22 H23 C24 C25 H26 C27 C28 H29 C30 C31 H32 C33 H34 H35 H36 C1  C2  C3  C4  
C5  H6  C7  C8  C9  C10 C11 H12 H13 C14 H15 C16 C17 H18 H19 H20 C21 C22 H23 C24 
C25 H26 C27 C28 H29 C30 C31 H32 C33 H34 H35 H36 C1  C2  C3  C4  C5  H6  C7  C8  
C9  C10 C11 H12 H13 C14 H15 C16 C17 H18 H19 H20 C21 C22 H23 C24 C25 H26 C27 C28 
H29 C30 C31 H32 C33 H34 H35 H36 C1  C2  C3  C4  C5  H6  C7  C8  C9  C10 C11 H12 
H13 C14 H15 C16 C17 H18 H19 H20 C21 C22 H23 C24 C25 H26 C27 C28 H29 C30 C31 H32 
C33 H34 H35 H36 C1  C2  C3  C4  C5  H6  C7  C8  C9  C10 C11 H12 H13 C14 H15 C16 
C17 H18 H19 H20 C21 C22 H23 C24 C25 H26 C27 C28 H29 C30 C31 H32 C33 H34 H35 H36 
C1  C2  C3  C4  C5  H6  C7  C8  C9  C10 C11 H12 H13 C14 H15 C16 C17 H18 H19 H20 
C21 C22 H23 C24 C25 H26 C27 C28 H29 C30 C31 H32 C33 H34 H35 H36 C1  C2  C3  C4  
C5  H6  C7  C8  C9  C10 C11 H12 H13 C14 H15 C16 C17 H18 H19 H20 C21 C22 H23 C24 
C25 H26 C27 C28 H29 C30 C31 H32 C33 H34 H35 H36 C1  C2  C3  C4  C5  H6  C7  C8  
C9  C10 C11 H12 H13 C14 H15 C16 C17 H18 H19 H20 C21 C22 H23 C24 C25 H26 C27 C28 
H29 C30 C31 H32 C33 H34 H35 H36 C1  C2  C3  C4  C5  H6  C7  C8  C9  C10 C11 H12 
H13 C14 H15 C16 C17 H18 H19 H20 C21 C22 H23 C24 C25 H26 C27 C28 H29 C30 C31 H32 
C33 H34 H35 H36 C1  C2  C3  C4  C5  H6  C7  C8  C9  C10 C11 H12 H13 C14 H15 C16 
C17 H18 H19 H20 C21 C22 H23 C24 C25 H26 C27 C28 H29 C30 C31 H32 C33 H34 H35 H36 
C1  C2  C3  C4  C5  H6  C7  C8  C9  C10 C11 H12 H13 C14 H15 C16 C17 H18 H19 H20 
C21 C22 H23 C24 C25 H26 C27 C28 H29 C30 C31 H32 C33 H34 H35 H36 C1  C2  C3  C4  
C5  H6  C7  C8  C9  C10 C11 H12 H13 C14 H15 C16 C17 H18 H19 H20 C21 C22 H23 C24 
C25 H26 C27 C28 H29 C30 C31 H32 C33 H34 H35 H36 C1  C2  C3  C4  C5  H6  C7  C8  
C9  C10 C11 H12 H13 C14 H15 C16 C17 H18 H19 H20 C21 C22 H23 C24 C25 H26 C27 C28 
H29 C30 C31 H32 C33 H34 H35 H36 C1  C2  C3  C4  C5  H6  C7  C8  C9  C10 C11 H12 
H13 C14 H15 C16 C17 H18 H19 H20 C21 C22 H23 C24 C25 H26 C27 C28 H29 C30 C31 H32 
C33 H34 H35 H36 C1  C2  C3  C4  C5  H6  C7  C8  C9  C10 C11 H12 H13 C14 H15 C16 
C17 H18 H19 H20 C21 C22 H23 C24 C25 H26 C27 C28 H29 C30 C31 H32 C33 H34 H35 H36 
C1  C2  C3  C4  C5  H6  C7  C8  C9  C10 C11 H12 H13 C14 H15 C16 C17 H18 H19 H20 
C21 C22 H23 C24 C25 H26 C27 C28 H29 C30 C31 H32 C33 H34 H35 H36 C1  C2  C3  C4  
C5  H6  C7  C8  C9  C10 C11 H12 H13 C14 H15 C16 C17 H18 H19 H20 C21 C22 H23 C24 
C25 H26 C27 C28 H29 C30 C31 H32 C33 H34 H35 H36 C1  C2  C3  C4  C5  H6  C7  C8  
C9  C10 C11 H12 H13 C14 H15 C16 C17 H18 H19 H20 C21 C22 H23 C24 C25 H26 C27 C28 
H29 C30 C31 H32 C33 H34 H35 H36 C1  C2  C3  C4  C5  H6  C7  C8  C9  C10 C11 H12 
H13 C14 H15 C16 C17 H18 H19 H20 C21 C22 H23 C24 C25 H26 C27 C28 H29 C30 C31 H32 
C33 H34 H35 H36 C1  C2  C3  C4  C5  H6  C7  C8  C9  C10 C11 H12 H13 C14 H15 C16 
C17 H18 H19 H20 C21 C22 H23 C24 C25 H26 C27 C28 H29 C30 C31 H32 C33 H34 H35 H36 
C1  C2  C3  C4  C5  H6  C7  C8  C9  C10 C11 H12 H13 C14 H15 C16 C17 H18 H19 H20 
C21 C22 H23 C24 C25 H26 C27 C28 H29 C30 C31 H32 C33 H34 H35 H36 C1  C2  C3  C4  
C5  H6  C7  C8  C9  C10 C11 H12 H13 C14 H15 C16 C17 H18 H19 H20 C21 C22 H23 C24 
C25 H26 C27 C28 H29 C30 C31 H32 C33 H34 H35 H36 C1  C2  C3  C4  C5  H6  C7  C8  
C9  C10 C11 H12 H13 C14 H15 C16 C17 H18 H19 H20 C21 C22 H23 C24 C25 H26 C27 C28 
H29 C30 C31 H32 C33 H34 H35 H36 C1  C2  C3  C4  C5  H6  C7  C8  C9  C10 C11 H12 
H13 C14 H15 C16 C17 H18 H19 H20 C21 C22 H23 C24 C25 H26 C27 C28 H29 C30 C31 H32 
C33 H34 H35 H36 C1  C2  C3  C4  C5  H6  C7  C8  C9  C10 C11 H12 H13 C14 H15 C16 
C17 H18 H19 H20 C21 C22 H23 C24 C25 H26 C27 C28 H29 C30 C31 H32 C33 H34 H35 H36 
C1  C2  C3  C4  C5  H6  C7  C8  C9  C10 C11 H12 H13 C14 H15 C16 C17 H18 H19 H20 
C21 C22 H23 C24 C25 H26 C27 C28 H29 C30 C31 H32 C33 H34 H35 H36 C1  C2  C3  C4  
C5  H6  C7  C8  C9  C10 C11 H12 H13 C14 H15 C16 C17 H18 H19 H20 C21 C22 H23 C24 
C25 H26 C27 C28 H29 C30 C31 H32 C33 H34 H35 H36 C1  C2  C3  C4  C5  H6  C7  C8  
C9  C10 C11 H12 H13 C14 H15 C16 C17 H18 H19 H20 C21 C22 H23 C24 C25 H26 C27 C28 
H29 C30 C31 H32 C33 H34 H35 H36 C1  C2  C3  C4  C5  H6  C7  C8  C9  C10 C11 H12 
H13 C14 H15 C16 C17 H18 H19 H20 C21 C22 H23 C24 C25 H26 C27 C28 H29 C30 C31 H32 
C33 H34 H35 H36 C1  C2  C3  C4  C5  H6  C7  C8  C9  C10 C11 H12 H13 C14 H15 C16 
C17 H18 H19 H20 C21 C22 H23 C24 C25 H26 C27 C28 H29 C30 C31 H32 C33 H34 H35 H36 
C1  C2  C3  C4  C5  H6  C7  C8  C9  C10 C11 H12 H13 C14 H15 C16 C17 H18 H19 H20 
C21 C22 H23 C24 C25 H26 C27 C28 H29 C30 C31 H32 C33 H34 H35 H36 C1  C2  C3  C4  
C5  H6  C7  C8  C9  C10 C11 H12 H13 C14 H15 C16 C17 H18 H19 H20 C21 C22 H23 C24 
C25 H26 C27 C28 H29 C30 C31 H32 C33 H34 H35 H36 C1  C2  C3  C4  C5  H6  C7  C8  
C9  C10 C11 H12 H13 C14 H15 C16 C17 H18 H19 H20 C21 C22 H23 C24 C25 H26 C27 C28 
H29 C30 C31 H32 C33 H34 H35 H36 C1  C2  C3  C4  C5  H6  C7  C8  C9  C10 C11 H12 
H13 C14 H15 C16 C17 H18 H19 H20 C21 C22 H23 C24 C25 H26 C27 C28 H29 C30 C31 H32 
C33 H34 H35 H36 C1  C2  C3  C4  C5  H6  C7  C8  C9  C10 C11 H12 H13 C14 H15 C16 
C17 H18 H19 H20 C21 C22 H23 C24 C25 H26 C27 C28 H29 C30 C31 H32 C33 H34 H35 H36 
C1  C2  C3  C4  C5  H6  C7  C8  C9  C10 C11 H12 H13 C14 H15 C16 C17 H18 H19 H20 
C21 C22 H23 C24 C25 H26 C27 C28 H29 C30 C31 H32 C33 H34 H35 H36 C1  C2  C3  C4  
C5  H6  C7  C8  C9  C10 C11 H12 H13 C14 H15 C16 C17 H18 H19 H20 C21 C22 H23 C24 
C25 H26 C27 C28 H29 C30 C31 H32 C33 H34 H35 H36 C1  C2  C3  C4  C5  H6  C7  C8  
C9  C10 C11 H12 H13 C14 H15 C16 C17 H18 H19 H20 C21 C22 H23 C24 C25 H26 C27 C28 
H29 C30 C31 H32 C33 H34 H35 H36 C1  C2  C3  C4  C5  H6  C7  C8  C9  C10 C11 H12 
H13 C14 H15 C16 C17 H18 H19 H20 C21 C22 H23 C24 C25 H26 C27 C28 H29 C30 C31 H32 
C33 H34 H35 H36 C1  C2  C3  C4  C5  H6  C7  C8  C9  C10 C11 H12 H13 C14 H15 C16 
C17 H18 H19 H20 C21 C22 H23 C24 C25 H26 C27 C28 H29 C30 C31 H32 C33 H34 H35 H36 
C1  C2  C3  C4  C5  H6  C7  C8  C9  C10 C11 H12 H13 C14 H15 C16 C17 H18 H19 H20 
C21 C22 H23 C24 C25 H26 C27 C28 H29 C30 C31 H32 C33 H34 H35 H36 C1  C2  C3  C4  
C5  H6  C7  C8  C9  C10 C11 H12 H13 C14 H15 C16 C17 H18 H19 H20 C21 C22 H23 C24 
C25 H26 C27 C28 H29 C30 C31 H32 C33 H34 H35 H36 C1  C2  C3  C4  C5  H6  C7  C8  
C9  C10 C11 H12 H13 C14 H15 C16 C17 H18 H19 H20 C21 C22 H23 C24 C25 H26 C27 C28 
H29 C30 C31 H32 C33 H34 H35 H36 C1  C2  C3  C4  C5  H6  C7  C8  C9  C10 C11 H12 
H13 C14 H15 C16 C17 H18 H19 H20 C21 C22 H23 C24 C25 H26 C27 C28 H29 C30 C31 H32 
C33 H34 H35 H36 C1  C2  C3  C4  C5  H6  C7  C8  C9  C10 C11 H12 H13 C14 H15 C16 
C17 H18 H19 H20 C21 C22 H23 C24 C25 H26 C27 C28 H29 C30 C31 H32 C33 H34 H35 H36 
C1  C2  C3  C4  C5  H6  C7  C8  C9  C10 C11 H12 H13 C14 H15 C16 C17 H18 H19 H20 
C21 C22 H23 C24 C25 H26 C27 C28 H29 C30 C31 H32 C33 H34 H35 H36 C1  C2  C3  C4  
C5  H6  C7  C8  C9  C10 C11 H12 H13 C14 H15 C16 C17 H18 H19 H20 C21 C22 H23 C24 
C25 H26 C27 C28 H29 C30 C31 H32 C33 H34 H35 H36 C1  C2  C3  C4  C5  H6  C7  C8  
C9  C10 C11 H12 H13 C14 H15 C16 C17 H18 H19 H20 C21 C22 H23 C24 C25 H26 C27 C28 
H29 C30 C31 H32 C33 H34 H35 H36 C1  C2  C3  C4  C5  H6  C7  C8  C9  C10 C11 H12 
H13 C14 H15 C16 C17 H18 H19 H20 C21 C22 H23 C24 C25 H26 C27 C28 H29 C30 C31 H32 
C33 H34 H35 H36 C1  C2  C3  C4  C5  H6  C7  C8  C9  C10 C11 H12 H13 C14 H15 C16 
C17 H18 H19 H20 C21 C22 H23 C24 C25 H26 C27 C28 H29 C30 C31 H32 C33 H34 H35 H36 
C1  C2  C3  C4  C5  H6  C7  C8  C9  C10 C11 H12 H13 C14 H15 C16 C17 H18 H19 H20 
C21 C22 H23 C24 C25 H26 C27 C28 H29 C30 C31 H32 C33 H34 H35 H36 C1  C2  C3  C4  
C5  H6  C7  C8  C9  C10 C11 H12 H13 C14 H15 C16 C17 H18 H19 H20 C21 C22 H23 C24 
C25 H26 C27 C28 H29 C30 C31 H32 C33 H34 H35 H36 C1  C2  C3  C4  C5  H6  C7  C8  
C9  C10 C11 H12 H13 C14 H15 C16 C17 H18 H19 H20 C21 C22 H23 C24 C25 H26 C27 C28 
H29 C30 C31 H32 C33 H34 H35 H36 C1  C2  C3  C4  C5  H6  C7  C8  C9  C10 C11 H12 
H13 C14 H15 C16 C17 H18 H19 H20 C21 C22 H23 C24 C25 H26 C27 C28 H29 C30 C31 H32 
C33 H34 H35 H36 C1  C2  C3  C4  C5  H6  C7  C8  C9  C10 C11 H12 H13 C14 H15 C16 
C17 H18 H19 H20 C21 C22 H23 C24 C25 H26 C27 C28 H29 C30 C31 H32 C33 H34 H35 H36 
C1  C2  C3  C4  C5  H6  C7  C8  C9  C10 C11 H12 H13 C14 H15 C16 C17 H18 H19 H20 
C21 C22 H23 C24 C25 H26 C27 C28 H29 C30 C31 H32 C33 H34 H35 H36 C1  C2  C3  C4  
C5  H6  C7  C8  C9  C10 C11 H12 H13 C14 H15 C16 C17 H18 H19 H20 C21 C22 H23 C24 
C25 H26 C27 C28 H29 C30 C31 H32 C33 H34 H35 H36 C1  C2  C3  C4  C5  H6  C7  C8  
C9  C10 C11 H12 H13 C14 H15 C16 C17 H18 H19 H20 C21 C22 H23 C24 C25 H26 C27 C28 
H29 C30 C31 H32 C33 H34 H35 H36 C1  C2  C3  C4  C5  H6  C7  C8  C9  C10 C11 H12 
H13 C14 H15 C16 C17 H18 H19 H20 C21 C22 H23 C24 C25 H26 C27 C28 H29 C30 C31 H32 
C33 H34 H35 H36 C1  C2  C3  C4  C5  H6  C7  C8  C9  C10 C11 H12 H13 C14 H15 C16 
C17 H18 H19 H20 C21 C22 H23 C24 C25 H26 C27 C28 H29 C30 C31 H32 C33 H34 H35 H36 
C1  C2  C3  C4  C5  H6  C7  C8  C9  C10 C11 H12 H13 C14 H15 C16 C17 H18 H19 H20 
C21 C22 H23 C24 C25 H26 C27 C28 H29 C30 C31 H32 C33 H34 H35 H36 C1  C2  C3  C4  
C5  H6  C7  C8  C9  C10 C11 H12 H13 C14 H15 C16 C17 H18 H19 H20 C21 C22 H23 C24 
C25 H26 C27 C28 H29 C30 C31 H32 C33 H34 H35 H36 C1  C2  C3  C4  C5  H6  C7  C8  
C9  C10 C11 H12 H13 C14 H15 C16 C17 H18 H19 H20 C21 C22 H23 C24 C25 H26 C27 C28 
H29 C30 C31 H32 C33 H34 H35 H36 C1  C2  C3  C4  C5  H6  C7  C8  C9  C10 C11 H12 
H13 C14 H15 C16 C17 H18 H19 H20 C21 C22 H23 C24 C25 H26 C27 C28 H29 C30 C31 H32 
C33 H34 H35 H36 C1  C2  C3  C4  C5  H6  C7  C8  C9  C10 C11 H12 H13 C14 H15 C16 
C17 H18 H19 H20 C21 C22 H23 C24 C25 H26 C27 C28 H29 C30 C31 H32 C33 H34 H35 H36 
C1  C2  C3  C4  C5  H6  C7  C8  C9  C10 C11 H12 H13 C14 H15 C16 C17 H18 H19 H20 
C21 C22 H23 C24 C25 H26 C27 C28 H29 C30 C31 H32 C33 H34 H35 H36 C1  C2  C3  C4  
C5  H6  C7  C8  C9  C10 C11 H12 H13 C14 H15 C16 C17 H18 H19 H20 C21 C22 H23 C24 
C25 H26 C27 C28 H29 C30 C31 H32 C33 H34 H35 H36 C1  C2  C3  C4  C5  H6  C7  C8  
C9  C10 C11 H12 H13 C14 H15 C16 C17 H18 H19 H20 C21 C22 H23 C24 C25 H26 C27 C28 
H29 C30 C31 H32 C33 H34 H35 H36 C1  C2  C3  C4  C5  H6  C7  C8  C9  C10 C11 H12 
H13 C14 H15 C16 C17 H18 H19 H20 C21 C22 H23 C24 C25 H26 C27 C28 H29 C30 C31 H32 
C33 H34 H35 H36 C1  C2  C3  C4  C5  H6  C7  C8  C9  C10 C11 H12 H13 C14 H15 C16 
C17 H18 H19 H20 C21 C22 H23 C24 C25 H26 C27 C28 H29 C30 C31 H32 C33 H34 H35 H36 
C1  C2  C3  C4  C5  H6  C7  C8  C9  C10 C11 H12 H13 C14 H15 C16 C17 H18 H19 H20 
C21 C22 H23 C24 C25 H26 C27 C28 H29 C30 C31 H32 C33 H34 H35 H36 C1  C2  C3  C4  
C5  H6  C7  C8  C9  C10 C11 H12 H13 C14 H15 C16 C17 H18 H19 H20 C21 C22 H23 C24 
C25 H26 C27 C28 H29 C30 C31 H32 C33 H34 H35 H36 C1  C2  C3  C4  C5  H6  C7  C8  
C9  C10 C11 H12 H13 C14 H15 C16 C17 H18 H19 H20 C21 C22 H23 C24 C25 H26 C27 C28 
H29 C30 C31 H32 C33 H34 H35 H36 C1  C2  C3  C4  C5  H6  C7  C8  C9  C10 C11 H12 
H13 C14 H15 C16 C17 H18 H19 H20 C21 C22 H23 C24 C25 H26 C27 C28 H29 C30 C31 H32 
C33 H34 H35 H36 C1  C2  C3  C4  C5  H6  C7  C8  C9  C10 C11 H12 H13 C14 H15 C16 
C17 H18 H19 H20 C21 C22 H23 C24 C25 H26 C27 C28 H29 C30 C31 H32 C33 H34 H35 H36 
C1  C2  C3  C4  C5  H6  C7  C8  C9  C10 C11 H12 H13 C14 H15 C16 C17 H18 H19 H20 
C21 C22 H23 C24 C25 H26 C27 C28 H29 C30 C31 H32 C33 H34 H35 H36 C1  C2  C3  C4  
C5  H6  C7  C8  C9  C10 C11 H12 H13 C14 H15 C16 C17 H18 H19 H20 C21 C22 H23 C24 
C25 H26 C27 C28 H29 C30 C31 H32 C33 H34 H35 H36 C1  C2  C3  C4  C5  H6  C7  C8  
C9  C10 C11 H12 H13 C14 H15 C16 C17 H18 H19 H20 C21 C22 H23 C24 C25 H26 C27 C28 
H29 C30 C31 H32 C33 H34 H35 H36 C1  C2  C3  C4  C5  H6  C7  C8  C9  C10 C11 H12 
H13 C14 H15 C16 C17 H18 H19 H20 C21 C22 H23 C24 C25 H26 C27 C28 H29 C30 C31 H32 
C33 H34 H35 H36 C1  C2  C3  C4  C5  H6  C7  C8  C9  C10 C11 H12 H13 C14 H15 C16 
C17 H18 H19 H20 C21 C22 H23 C24 C25 H26 C27 C28 H29 C30 C31 H32 C33 H34 H35 H36 
C1  C2  C3  C4  C5  H6  C7  C8  C9  C10 C11 H12 H13 C14 H15 C16 C17 H18 H19 H20 
C21 C22 H23 C24 C25 H26 C27 C28 H29 C30 C31 H32 C33 H34 H35 H36 C1  C2  C3  C4  
C5  H6  C7  C8  C9  C10 C11 H12 H13 C14 H15 C16 C17 H18 H19 H20 C21 C22 H23 C24 
C25 H26 C27 C28 H29 C30 C31 H32 C33 H34 H35 H36 C1  C2  C3  C4  C5  H6  C7  C8  
C9  C10 C11 H12 H13 C14 H15 C16 C17 H18 H19 H20 C21 C22 H23 C24 C25 H26 C27 C28 
H29 C30 C31 H32 C33 H34 H35 H36 C1  C2  C3  C4  C5  H6  C7  C8  C9  C10 C11 H12 
H13 C14 H15 C16 C17 H18 H19 H20 C21 C22 H23 C24 C25 H26 C27 C28 H29 C30 C31 H32 
C33 H34 H35 H36 C1  C2  C3  C4  C5  H6  C7  C8  C9  C10 C11 H12 H13 C14 H15 C16 
C17 H18 H19 H20 C21 C22 H23 C24 C25 H26 C27 C28 H29 C30 C31 H32 C33 H34 H35 H36 
C1  C2  C3  C4  C5  H6  C7  C8  C9  C10 C11 H12 H13 C14 H15 C16 C17 H18 H19 H20 
C21 C22 H23 C24 C25 H26 C27 C28 H29 C30 C31 H32 C33 H34 H35 H36 C1  C2  C3  C4  
C5  H6  C7  C8  C9  C10 C11 H12 H13 C14 H15 C16 C17 H18 H19 H20 C21 C22 H23 C24 
C25 H26 C27 C28 H29 C30 C31 H32 C33 H34 H35 H36 C1  C2  C3  C4  C5  H6  C7  C8  
C9  C10 C11 H12 H13 C14 H15 C16 C17 H18 H19 H20 C21 C22 H23 C24 C25 H26 C27 C28 
H29 C30 C31 H32 C33 H34 H35 H36 C1  C2  C3  C4  C5  H6  C7  C8  C9  C10 C11 H12 
H13 C14 H15 C16 C17 H18 H19 H20 C21 C22 H23 C24 C25 H26 C27 C28 H29 C30 C31 H32 
C33 H34 H35 H36 C1  C2  C3  C4  C5  H6  C7  C8  C9  C10 C11 H12 H13 C14 H15 C16 
C17 H18 H19 H20 C21 C22 H23 C24 C25 H26 C27 C28 H29 C30 C31 H32 C33 H34 H35 H36 
C1  C2  C3  C4  C5  H6  C7  C8  C9  C10 C11 H12 H13 C14 H15 C16 C17 H18 H19 H20 
C21 C22 H23 C24 C25 H26 C27 C28 H29 C30 C31 H32 C33 H34 H35 H36 C1  C2  C3  C4  
C5  H6  C7  C8  C9  C10 C11 H12 H13 C14 H15 C16 C17 H18 H19 H20 C21 C22 H23 C24 
C25 H26 C27 C28 H29 C30 C31 H32 C33 H34 H35 H36 C1  C2  C3  C4  C5  H6  C7  C8  
C9  C10 C11 H12 H13 C14 H15 C16 C17 H18 H19 H20 C21 C22 H23 C24 C25 H26 C27 C28 
H29 C30 C31 H32 C33 H34 H35 H36 C1  C2  C3  C4  C5  H6  C7  C8  C9  C10 C11 H12 
H13 C14 H15 C16 C17 H18 H19 H20 C21 C22 H23 C24 C25 H26 C27 C28 H29 C30 C31 H32 
C33 H34 H35 H36 C1  C2  C3  C4  C5  H6  C7  C8  C9  C10 C11 H12 H13 C14 H15 C16 
C17 H18 H19 H20 C21 C22 H23 C24 C25 H26 C27 C28 H29 C30 C31 H32 C33 H34 H35 H36 
C1  C2  C3  C4  C5  H6  C7  C8  C9  C10 C11 H12 H13 C14 H15 C16 C17 H18 H19 H20 
C21 C22 H23 C24 C25 H26 C27 C28 H29 C30 C31 H32 C33 H34 H35 H36 C1  C2  C3  C4  
C5  H6  C7  C8  C9  C10 C11 H12 H13 C14 H15 C16 C17 H18 H19 H20 C21 C22 H23 C24 
C25 H26 C27 C28 H29 C30 C31 H32 C33 H34 H35 H36 C1  C2  C3  C4  C5  H6  C7  C8  
C9  C10 C11 H12 H13 C14 H15 C16 C17 H18 H19 H20 C21 C22 H23 C24 C25 H26 C27 C28 
H29 C30 C31 H32 C33 H34 H35 H36 C1  C2  C3  C4  C5  H6  C7  C8  C9  C10 C11 H12 
H13 C14 H15 C16 C17 H18 H19 H20 C21 C22 H23 C24 C25 H26 C27 C28 H29 C30 C31 H32 
C33 H34 H35 H36 C1  C2  C3  C4  C5  H6  C7  C8  C9  C10 C11 H12 H13 C14 H15 C16 
C17 H18 H19 H20 C21 C22 H23 C24 C25 H26 C27 C28 H29 C30 C31 H32 C33 H34 H35 H36 
C1  C2  C3  C4  C5  H6  C7  C8  C9  C10 C11 H12 H13 C14 H15 C16 C17 H18 H19 H20 
C21 C22 H23 C24 C25 H26 C27 C28 H29 C30 C31 H32 C33 H34 H35 H36 C1  C2  C3  C4  
C5  H6  C7  C8  C9  C10 C11 H12 H13 C14 H15 C16 C17 H18 H19 H20 C21 C22 H23 C24 
C25 H26 C27 C28 H29 C30 C31 H32 C33 H34 H35 H36 C1  C2  C3  C4  C5  H6  C7  C8  
C9  C10 C11 H12 H13 C14 H15 C16 C17 H18 H19 H20 C21 C22 H23 C24 C25 H26 C27 C28 
H29 C30 C31 H32 C33 H34 H35 H36 C1  C2  C3  C4  C5  H6  C7  C8  C9  C10 C11 H12 
H13 C14 H15 C16 C17 H18 H19 H20 C21 C22 H23 C24 C25 H26 C27 C28 H29 C30 C31 H32 
C33 H34 H35 H36 C1  C2  C3  C4  C5  H6  C7  C8  C9  C10 C11 H12 H13 C14 H15 C16 
C17 H18 H19 H20 C21 C22 H23 C24 C25 H26 C27 C28 H29 C30 C31 H32 C33 H34 H35 H36 
C1  C2  C3  C4  C5  H6  C7  C8  C9  C10 C11 H12 H13 C14 H15 C16 C17 H18 H19 H20 
C21 C22 H23 C24 C25 H26 C27 C28 H29 C30 C31 H32 C33 H34 H35 H36 C1  C2  C3  C4  
C5  H6  C7  C8  C9  C10 C11 H12 H13 C14 H15 C16 C17 H18 H19 H20 C21 C22 H23 C24 
C25 H26 C27 C28 H29 C30 C31 H32 C33 H34 H35 H36 C1  C2  C3  C4  C5  H6  C7  C8  
C9  C10 C11 H12 H13 C14 H15 C16 C17 H18 H19 H20 C21 C22 H23 C24 C25 H26 C27 C28 
H29 C30 C31 H32 C33 H34 H35 H36 C1  C2  C3  C4  C5  H6  C7  C8  C9  C10 C11 H12 
H13 C14 H15 C16 C17 H18 H19 H20 C21 C22 H23 C24 C25 H26 C27 C28 H29 C30 C31 H32 
C33 H34 H35 H36 C1  C2  C3  C4  C5  H6  C7  C8  C9  C10 C11 H12 H13 C14 H15 C16 
C17 H18 H19 H20 C21 C22 H23 C24 C25 H26 C27 C28 H29 C30 C31 H32 C33 H34 H35 H36 
C1  C2  C3  C4  C5  H6  C7  C8  C9  C10 C11 H12 H13 C14 H15 C16 C17 H18 H19 H20 
C21 C22 H23 C24 C25 H26 C27 C28 H29 C30 C31 H32 C33 H34 H35 H36 C1  C2  C3  C4  
C5  H6  C7  C8  C9  C10 C11 H12 H13 C14 H15 C16 C17 H18 H19 H20 C21 C22 H23 C24 
C25 H26 C27 C28 H29 C30 C31 H32 C33 H34 H35 H36 C1  C2  C3  C4  C5  H6  C7  C8  
C9  C10 C11 H12 H13 C14 H15 C16 C17 H18 H19 H20 C21 C22 H23 C24 C25 H26 C27 C28 
H29 C30 C31 H32 C33 H34 H35 H36 C1  C2  C3  C4  C5  H6  C7  C8  C9  C10 C11 H12 
H13 C14 H15 C16 C17 H18 H19 H20 C21 C22 H23 C24 C25 H26 C27 C28 H29 C30 C31 H32 
C33 H34 H35 H36 C1  C2  C3  C4  C5  H6  C7  C8  C9  C10 C11 H12 H13 C14 H15 C16 
C17 H18 H19 H20 C21 C22 H23 C24 C25 H26 C27 C28 H29 C30 C31 H32 C33 H34 H35 H36 
C1  C2  C3  C4  C5  H6  C7  C8  C9  C10 C11 H12 H13 C14 H15 C16 C17 H18 H19 H20 
C21 C22 H23 C24 C25 H26 C27 C28 H29 C30 C31 H32 C33 H34 H35 H36 C1  C2  C3  C4  
C5  H6  C7  C8  C9  C10 C11 H12 H13 C14 H15 C16 C17 H18 H19 H20 C21 C22 H23 C24 
C25 H26 C27 C28 H29 C30 C31 H32 C33 H34 H35 H36 C1  C2  C3  C4  C5  H6  C7  C8  
C9  C10 C11 H12 H13 C14 H15 C16 C17 H18 H19 H20 C21 C22 H23 C24 C25 H26 C27 C28 
H29 C30 C31 H32 C33 H34 H35 H36 C1  C2  C3  C4  C5  H6  C7  C8  C9  C10 C11 H12 
H13 C14 H15 C16 C17 H18 H19 H20 C21 C22 H23 C24 C25 H26 C27 C28 H29 C30 C31 H32 
C33 H34 H35 H36 C1  C2  C3  C4  C5  H6  C7  C8  C9  C10 C11 H12 H13 C14 H15 C16 
C17 H18 H19 H20 C21 C22 H23 C24 C25 H26 C27 C28 H29 C30 C31 H32 C33 H34 H35 H36 
C1  C2  C3  C4  C5  H6  C7  C8  C9  C10 C11 H12 H13 C14 H15 C16 C17 H18 H19 H20 
C21 C22 H23 C24 C25 H26 C27 C28 H29 C30 C31 H32 C33 H34 H35 H36 C1  C2  C3  C4  
C5  H6  C7  C8  C9  C10 C11 H12 H13 C14 H15 C16 C17 H18 H19 H20 C21 C22 H23 C24 
C25 H26 C27 C28 H29 C30 C31 H32 C33 H34 H35 H36 C1  C2  C3  C4  C5  H6  C7  C8  
C9  C10 C11 H12 H13 C14 H15 C16 C17 H18 H19 H20 C21 C22 H23 C24 C25 H26 C27 C28 
H29 C30 C31 H32 C33 H34 H35 H36 C1  C2  C3  C4  C5  H6  C7  C8  C9  C10 C11 H12 
H13 C14 H15 C16 C17 H18 H19 H20 C21 C22 H23 C24 C25 H26 C27 C28 H29 C30 C31 H32 
C33 H34 H35 H36 C1  C2  C3  C4  C5  H6  C7  C8  C9  C10 C11 H12 H13 C14 H15 C16 
C17 H18 H19 H20 C21 C22 H23 C24 C25 H26 C27 C28 H29 C30 C31 H32 C33 H34 H35 H36 
C1  C2  C3  C4  C5  H6  C7  C8  C9  C10 C11 H12 H13 C14 H15 C16 C17 H18 H19 H20 
C21 C22 H23 C24 C25 H26 C27 C28 H29 C30 C31 H32 C33 H34 H35 H36 C1  C2  C3  C4  
C5  H6  C7  C8  C9  C10 C11 H12 H13 C14 H15 C16 C17 H18 H19 H20 C21 C22 H23 C24 
C25 H26 C27 C28 H29 C30 C31 H32 C33 H34 H35 H36 C1  C2  C3  C4  C5  H6  C7  C8  
C9  C10 C11 H12 H13 C14 H15 C16 C17 H18 H19 H20 C21 C22 H23 C24 C25 H26 C27 C28 
H29 C30 C31 H32 C33 H34 H35 H36 C1  C2  C3  C4  C5  H6  C7  C8  C9  C10 C11 H12 
H13 C14 H15 C16 C17 H18 H19 H20 C21 C22 H23 C24 C25 H26 C27 C28 H29 C30 C31 H32 
C33 H34 H35 H36 C1  C2  C3  C4  C5  H6  C7  C8  C9  C10 C11 H12 H13 C14 H15 C16 
C17 H18 H19 H20 C21 C22 H23 C24 C25 H26 C27 C28 H29 C30 C31 H32 C33 H34 H35 H36 
C1  C2  C3  C4  C5  H6  C7  C8  C9  C10 C11 H12 H13 C14 H15 C16 C17 H18 H19 H20 
C21 C22 H23 C24 C25 H26 C27 C28 H29 C30 C31 H32 C33 H34 H35 H36 C1  C2  C3  C4  
C5  H6  C7  C8  C9  C10 C11 H12 H13 C14 H15 C16 C17 H18 H19 H20 C21 C22 H23 C24 
C25 H26 C27 C28 H29 C30 C31 H32 C33 H34 H35 H36 C1  C2  C3  C4  C5  H6  C7  C8  
C9  C10 C11 H12 H13 C14 H15 C16 C17 H18 H19 H20 C21 C22 H23 C24 C25 H26 C27 C28 
H29 C30 C31 H32 C33 H34 H35 H36 C1  C2  C3  C4  C5  H6  C7  C8  C9  C10 C11 H12 
H13 C14 H15 C16 C17 H18 H19 H20 C21 C22 H23 C24 C25 H26 C27 C28 H29 C30 C31 H32 
C33 H34 H35 H36 C1  C2  C3  C4  C5  H6  C7  C8  C9  C10 C11 H12 H13 C14 H15 C16 
C17 H18 H19 H20 C21 C22 H23 C24 C25 H26 C27 C28 H29 C30 C31 H32 C33 H34 H35 H36 
C1  C2  C3  C4  C5  H6  C7  C8  C9  C10 C11 H12 H13 C14 H15 C16 C17 H18 H19 H20 
C21 C22 H23 C24 C25 H26 C27 C28 H29 C30 C31 H32 C33 H34 H35 H36 C1  C2  C3  C4  
C5  H6  C7  C8  C9  C10 C11 H12 H13 C14 H15 C16 C17 H18 H19 H20 C21 C22 H23 C24 
C25 H26 C27 C28 H29 C30 C31 H32 C33 H34 H35 H36 C1  C2  C3  C4  C5  H6  C7  C8  
C9  C10 C11 H12 H13 C14 H15 C16 C17 H18 H19 H20 C21 C22 H23 C24 C25 H26 C27 C28 
H29 C30 C31 H32 C33 H34 H35 H36 C1  C2  C3  C4  C5  H6  C7  C8  C9  C10 C11 H12 
H13 C14 H15 C16 C17 H18 H19 H20 C21 C22 H23 C24 C25 H26 C27 C28 H29 C30 C31 H32 
C33 H34 H35 H36 C1  C2  C3  C4  C5  H6  C7  C8  C9  C10 C11 H12 H13 C14 H15 C16 
C17 H18 H19 H20 C21 C22 H23 C24 C25 H26 C27 C28 H29 C30 C31 H32 C33 H34 H35 H36 
C1  C2  C3  C4  C5  H6  C7  C8  C9  C10 C11 H12 H13 C14 H15 C16 C17 H18 H19 H20 
C21 C22 H23 C24 C25 H26 C27 C28 H29 C30 C31 H32 C33 H34 H35 H36 C1  C2  C3  C4  
C5  H6  C7  C8  C9  C10 C11 H12 H13 C14 H15 C16 C17 H18 H19 H20 C21 C22 H23 C24 
C25 H26 C27 C28 H29 C30 C31 H32 C33 H34 H35 H36 C1  C2  C3  C4  C5  H6  C7  C8  
C9  C10 C11 H12 H13 C14 H15 C16 C17 H18 H19 H20 C21 C22 H23 C24 C25 H26 C27 C28 
H29 C30 C31 H32 C33 H34 H35 H36 C1  C2  C3  C4  C5  H6  C7  C8  C9  C10 C11 H12 
H13 C14 H15 C16 C17 H18 H19 H20 C21 C22 H23 C24 C25 H26 C27 C28 H29 C30 C31 H32 
C33 H34 H35 H36 C1  C2  C3  C4  C5  H6  C7  C8  C9  C10 C11 H12 H13 C14 H15 C16 
C17 H18 H19 H20 C21 C22 H23 C24 C25 H26 C27 C28 H29 C30 C31 H32 C33 H34 H35 H36 
C1  C2  C3  C4  C5  H6  C7  C8  C9  C10 C11 H12 H13 C14 H15 C16 C17 H18 H19 H20 
C21 C22 H23 C24 C25 H26 C27 C28 H29 C30 C31 H32 C33 H34 H35 H36 C1  C2  C3  C4  
C5  H6  C7  C8  C9  C10 C11 H12 H13 C14 H15 C16 C17 H18 H19 H20 C21 C22 H23 C24 
C25 H26 C27 C28 H29 C30 C31 H32 C33 H34 H35 H36 C1  C2  C3  C4  C5  H6  C7  C8  
C9  C10 C11 H12 H13 C14 H15 C16 C17 H18 H19 H20 C21 C22 H23 C24 C25 H26 C27 C28 
H29 C30 C31 H32 C33 H34 H35 H36 C1  C2  C3  C4  C5  H6  C7  C8  C9  C10 C11 H12 
H13 C14 H15 C16 C17 H18 H19 H20 C21 C22 H23 C24 C25 H26 C27 C28 H29 C30 C31 H32 
C33 H34 H35 H36 C1  C2  C3  C4  C5  H6  C7  C8  C9  C10 C11 H12 H13 C14 H15 C16 
C17 H18 H19 H20 C21 C22 H23 C24 C25 H26 C27 C28 H29 C30 C31 H32 C33 H34 H35 H36 
C1  C2  C3  C4  C5  H6  C7  C8  C9  C10 C11 H12 H13 C14 H15 C16 C17 H18 H19 H20 
C21 C22 H23 C24 C25 H26 C27 C28 H29 C30 C31 H32 C33 H34 H35 H36 C1  C2  C3  C4  
C5  H6  C7  C8  C9  C10 C11 H12 H13 C14 H15 C16 C17 H18 H19 H20 C21 C22 H23 C24 
C25 H26 C27 C28 H29 C30 C31 H32 C33 H34 H35 H36 C1  C2  C3  C4  C5  H6  C7  C8  
C9  C10 C11 H12 H13 C14 H15 C16 C17 H18 H19 H20 C21 C22 H23 C24 C25 H26 C27 C28 
H29 C30 C31 H32 C33 H34 H35 H36 C1  C2  C3  C4  C5  H6  C7  C8  C9  C10 C11 H12 
H13 C14 H15 C16 C17 H18 H19 H20 C21 C22 H23 C24 C25 H26 C27 C28 H29 C30 C31 H32 
C33 H34 H35 H36 C1  C2  C3  C4  C5  H6  C7  C8  C9  C10 C11 H12 H13 C14 H15 C16 
C17 H18 H19 H20 C21 C22 H23 C24 C25 H26 C27 C28 H29 C30 C31 H32 C33 H34 H35 H36 
C1  C2  C3  C4  C5  H6  C7  C8  C9  C10 C11 H12 H13 C14 H15 C16 C17 H18 H19 H20 
C21 C22 H23 C24 C25 H26 C27 C28 H29 C30 C31 H32 C33 H34 H35 H36 C1  C2  C3  C4  
C5  H6  C7  C8  C9  C10 C11 H12 H13 C14 H15 C16 C17 H18 H19 H20 C21 C22 H23 C24 
C25 H26 C27 C28 H29 C30 C31 H32 C33 H34 H35 H36 C1  C2  C3  C4  C5  H6  C7  C8  
C9  C10 C11 H12 H13 C14 H15 C16 C17 H18 H19 H20 C21 C22 H23 C24 C25 H26 C27 C28 
H29 C30 C31 H32 C33 H34 H35 H36 C1  C2  C3  C4  C5  H6  C7  C8  C9  C10 C11 H12 
H13 C14 H15 C16 C17 H18 H19 H20 C21 C22 H23 C24 C25 H26 C27 C28 H29 C30 C31 H32 
C33 H34 H35 H36 C1  C2  C3  C4  C5  H6  C7  C8  C9  C10 C11 H12 H13 C14 H15 C16 
C17 H18 H19 H20 C21 C22 H23 C24 C25 H26 C27 C28 H29 C30 C31 H32 C33 H34 H35 H36 
C1  C2  C3  C4  C5  H6  C7  C8  C9  C10 C11 H12 H13 C14 H15 C16 C17 H18 H19 H20 
C21 C22 H23 C24 C25 H26 C27 C28 H29 C30 C31 H32 C33 H34 H35 H36 C1  C2  C3  C4  
C5  H6  C7  C8  C9  C10 C11 H12 H13 C14 H15 C16 C17 H18 H19 H20 C21 C22 H23 C24 
C25 H26 C27 C28 H29 C30 C31 H32 C33 H34 H35 H36 C1  C2  C3  C4  C5  H6  C7  C8  
C9  C10 C11 H12 H13 C14 H15 C16 C17 H18 H19 H20 C21 C22 H23 C24 C25 H26 C27 C28 
H29 C30 C31 H32 C33 H34 H35 H36 C1  C2  C3  C4  C5  H6  C7  C8  C9  C10 C11 H12 
H13 C14 H15 C16 C17 H18 H19 H20 C21 C22 H23 C24 C25 H26 C27 C28 H29 C30 C31 H32 
C33 H34 H35 H36 C1  C2  C3  C4  C5  H6  C7  C8  C9  C10 C11 H12 H13 C14 H15 C16 
C17 H18 H19 H20 C21 C22 H23 C24 C25 H26 C27 C28 H29 C30 C31 H32 C33 H34 H35 H36 
C1  C2  C3  C4  C5  H6  C7  C8  C9  C10 C11 H12 H13 C14 H15 C16 C17 H18 H19 H20 
C21 C22 H23 C24 C25 H26 C27 C28 H29 C30 C31 H32 C33 H34 H35 H36 C1  C2  C3  C4  
C5  H6  C7  C8  C9  C10 C11 H12 H13 C14 H15 C16 C17 H18 H19 H20 C21 C22 H23 C24 
C25 H26 C27 C28 H29 C30 C31 H32 C33 H34 H35 H36 C1  C2  C3  C4  C5  H6  C7  C8  
C9  C10 C11 H12 H13 C14 H15 C16 C17 H18 H19 H20 C21 C22 H23 C24 C25 H26 C27 C28 
H29 C30 C31 H32 C33 H34 H35 H36 C1  C2  C3  C4  C5  H6  C7  C8  C9  C10 C11 H12 
H13 C14 H15 C16 C17 H18 H19 H20 C21 C22 H23 C24 C25 H26 C27 C28 H29 C30 C31 H32 
C33 H34 H35 H36 C1  C2  C3  C4  C5  H6  C7  C8  C9  C10 C11 H12 H13 C14 H15 C16 
C17 H18 H19 H20 C21 C22 H23 C24 C25 H26 C27 C28 H29 C30 C31 H32 C33 H34 H35 H36 
C1  C2  C3  C4  C5  H6  C7  C8  C9  C10 C11 H12 H13 C14 H15 C16 C17 H18 H19 H20 
C21 C22 H23 C24 C25 H26 C27 C28 H29 C30 C31 H32 C33 H34 H35 H36 C1  C2  C3  C4  
C5  H6  C7  C8  C9  C10 C11 H12 H13 C14 H15 C16 C17 H18 H19 H20 C21 C22 H23 C24 
C25 H26 C27 C28 H29 C30 C31 H32 C33 H34 H35 H36 C1  C2  C3  C4  C5  H6  C7  C8  
C9  C10 C11 H12 H13 C14 H15 C16 C17 H18 H19 H20 C21 C22 H23 C24 C25 H26 C27 C28 
H29 C30 C31 H32 C33 H34 H35 H36 C1  C2  C3  C4  C5  H6  C7  C8  C9  C10 C11 H12 
H13 C14 H15 C16 C17 H18 H19 H20 C21 C22 H23 C24 C25 H26 C27 C28 H29 C30 C31 H32 
C33 H34 H35 H36 C1  C2  C3  C4  C5  H6  C7  C8  C9  C10 C11 H12 H13 C14 H15 C16 
C17 H18 H19 H20 C21 C22 H23 C24 C25 H26 C27 C28 H29 C30 C31 H32 C33 H34 H35 H36 
C1  C2  C3  C4  C5  H6  C7  C8  C9  C10 C11 H12 H13 C14 H15 C16 C17 H18 H19 H20 
C21 C22 H23 C24 C25 H26 C27 C28 H29 C30 C31 H32 C33 H34 H35 H36 C1  C2  C3  C4  
C5  H6  C7  C8  C9  C10 C11 H12 H13 C14 H15 C16 C17 H18 H19 H20 C21 C22 H23 C24 
C25 H26 C27 C28 H29 C30 C31 H32 C33 H34 H35 H36 C1  C2  C3  C4  C5  H6  C7  C8  
C9  C10 C11 H12 H13 C14 H15 C16 C17 H18 H19 H20 C21 C22 H23 C24 C25 H26 C27 C28 
H29 C30 C31 H32 C33 H34 H35 H36 C1  C2  C3  C4  C5  H6  C7  C8  C9  C10 C11 H12 
H13 C14 H15 C16 C17 H18 H19 H20 C21 C22 H23 C24 C25 H26 C27 C28 H29 C30 C31 H32 
C33 H34 H35 H36 C1  C2  C3  C4  C5  H6  C7  C8  C9  C10 C11 H12 H13 C14 H15 C16 
C17 H18 H19 H20 C21 C22 H23 C24 C25 H26 C27 C28 H29 C30 C31 H32 C33 H34 H35 H36 
C1  C2  C3  C4  C5  H6  C7  C8  C9  C10 C11 H12 H13 C14 H15 C16 C17 H18 H19 H20 
C21 C22 H23 C24 C25 H26 C27 C28 H29 C30 C31 H32 C33 H34 H35 H36 C1  C2  C3  C4  
C5  H6  C7  C8  C9  C10 C11 H12 H13 C14 H15 C16 C17 H18 H19 H20 C21 C22 H23 C24 
C25 H26 C27 C28 H29 C30 C31 H32 C33 H34 H35 H36 C1  C2  C3  C4  C5  H6  C7  C8  
C9  C10 C11 H12 H13 C14 H15 C16 C17 H18 H19 H20 C21 C22 H23 C24 C25 H26 C27 C28 
H29 C30 C31 H32 C33 H34 H35 H36 C1  C2  C3  C4  C5  H6  C7  C8  C9  C10 C11 H12 
H13 C14 H15 C16 C17 H18 H19 H20 C21 C22 H23 C24 C25 H26 C27 C28 H29 C30 C31 H32 
C33 H34 H35 H36 C1  C2  C3  C4  C5  H6  C7  C8  C9  C10 C11 H12 H13 C14 H15 C16 
C17 H18 H19 H20 C21 C22 H23 C24 C25 H26 C27 C28 H29 C30 C31 H32 C33 H34 H35 H36 
C1  C2  C3  C4  C5  H6  C7  C8  C9  C10 C11 H12 H13 C14 H15 C16 C17 H18 H19 H20 
C21 C22 H23 C24 C25 H26 C27 C28 H29 C30 C31 H32 C33 H34 H35 H36 C1  C2  C3  C4  
C5  H6  C7  C8  C9  C10 C11 H12 H13 C14 H15 C16 C17 H18 H19 H20 C21 C22 H23 C24 
C25 H26 C27 C28 H29 C30 C31 H32 C33 H34 H35 H36 C1  C2  C3  C4  C5  H6  C7  C8  
C9  C10 C11 H12 H13 C14 H15 C16 C17 H18 H19 H20 C21 C22 H23 C24 C25 H26 C27 C28 
H29 C30 C31 H32 C33 H34 H35 H36 C1  C2  C3  C4  C5  H6  C7  C8  C9  C10 C11 H12 
H13 C14 H15 C16 C17 H18 H19 H20 C21 C22 H23 C24 C25 H26 C27 C28 H29 C30 C31 H32 
C33 H34 H35 H36 C1  C2  C3  C4  C5  H6  C7  C8  C9  C10 C11 H12 H13 C14 H15 C16 
C17 H18 H19 H20 C21 C22 H23 C24 C25 H26 C27 C28 H29 C30 C31 H32 C33 H34 H35 H36 
C1  C2  C3  C4  C5  H6  C7  C8  C9  C10 C11 H12 H13 C14 H15 C16 C17 H18 H19 H20 
C21 C22 H23 C24 C25 H26 C27 C28 H29 C30 C31 H32 C33 H34 H35 H36 C1  C2  C3  C4  
C5  H6  C7  C8  C9  C10 C11 H12 H13 C14 H15 C16 C17 H18 H19 H20 C21 C22 H23 C24 
C25 H26 C27 C28 H29 C30 C31 H32 C33 H34 H35 H36 C1  C2  C3  C4  C5  H6  C7  C8  
C9  C10 C11 H12 H13 C14 H15 C16 C17 H18 H19 H20 C21 C22 H23 C24 C25 H26 C27 C28 
H29 C30 C31 H32 C33 H34 H35 H36 C1  C2  C3  C4  C5  H6  C7  C8  C9  C10 C11 H12 
H13 C14 H15 C16 C17 H18 H19 H20 C21 C22 H23 C24 C25 H26 C27 C28 H29 C30 C31 H32 
C33 H34 H35 H36 C1  C2  C3  C4  C5  H6  C7  C8  C9  C10 C11 H12 H13 C14 H15 C16 
C17 H18 H19 H20 C21 C22 H23 C24 C25 H26 C27 C28 H29 C30 C31 H32 C33 H34 H35 H36 
C1  C2  C3  C4  C5  H6  C7  C8  C9  C10 C11 H12 H13 C14 H15 C16 C17 H18 H19 H20 
C21 C22 H23 C24 C25 H26 C27 C28 H29 C30 C31 H32 C33 H34 H35 H36 C1  C2  C3  C4  
C5  H6  C7  C8  C9  C10 C11 H12 H13 C14 H15 C16 C17 H18 H19 H20 C21 C22 H23 C24 
C25 H26 C27 C28 H29 C30 C31 H32 C33 H34 H35 H36 C1  C2  C3  C4  C5  H6  C7  C8  
C9  C10 C11 H12 H13 C14 H15 C16 C17 H18 H19 H20 C21 C22 H23 C24 C25 H26 C27 C28 
H29 C30 C31 H32 C33 H34 H35 H36 C1  C2  C3  C4  C5  H6  C7  C8  C9  C10 C11 H12 
H13 C14 H15 C16 C17 H18 H19 H20 C21 C22 H23 C24 C25 H26 C27 C28 H29 C30 C31 H32 
C33 H34 H35 H36 C1  C2  C3  C4  C5  H6  C7  C8  C9  C10 C11 H12 H13 C14 H15 C16 
C17 H18 H19 H20 C21 C22 H23 C24 C25 H26 C27 C28 H29 C30 C31 H32 C33 H34 H35 H36 
C1  C2  C3  C4  C5  H6  C7  C8  C9  C10 C11 H12 H13 C14 H15 C16 C17 H18 H19 H20 
C21 C22 H23 C24 C25 H26 C27 C28 H29 C30 C31 H32 C33 H34 H35 H36 C1  C2  C3  C4  
C5  H6  C7  C8  C9  C10 C11 H12 H13 C14 H15 C16 C17 H18 H19 H20 C21 C22 H23 C24 
C25 H26 C27 C28 H29 C30 C31 H32 C33 H34 H35 H36 C1  C2  C3  C4  C5  H6  C7  C8  
C9  C10 C11 H12 H13 C14 H15 C16 C17 H18 H19 H20 C21 C22 H23 C24 C25 H26 C27 C28 
H29 C30 C31 H32 C33 H34 H35 H36 C1  C2  C3  C4  C5  H6  C7  C8  C9  C10 C11 H12 
H13 C14 H15 C16 C17 H18 H19 H20 C21 C22 H23 C24 C25 H26 C27 C28 H29 C30 C31 H32 
C33 H34 H35 H36 C1  C2  C3  C4  C5  H6  C7  C8  C9  C10 C11 H12 H13 C14 H15 C16 
C17 H18 H19 H20 C21 C22 H23 C24 C25 H26 C27 C28 H29 C30 C31 H32 C33 H34 H35 H36 
C1  C2  C3  C4  C5  H6  C7  C8  C9  C10 C11 H12 H13 C14 H15 C16 C17 H18 H19 H20 
C21 C22 H23 C24 C25 H26 C27 C28 H29 C30 C31 H32 C33 H34 H35 H36 C1  C2  C3  C4  
C5  H6  C7  C8  C9  C10 C11 H12 H13 C14 H15 C16 C17 H18 H19 H20 C21 C22 H23 C24 
C25 H26 C27 C28 H29 C30 C31 H32 C33 H34 H35 H36 C1  C2  C3  C4  C5  H6  C7  C8  
C9  C10 C11 H12 H13 C14 H15 C16 C17 H18 H19 H20 C21 C22 H23 C24 C25 H26 C27 C28 
H29 C30 C31 H32 C33 H34 H35 H36 C1  C2  C3  C4  C5  H6  C7  C8  C9  C10 C11 H12 
H13 C14 H15 C16 C17 H18 H19 H20 C21 C22 H23 C24 C25 H26 C27 C28 H29 C30 C31 H32 
C33 H34 H35 H36 C1  C2  C3  C4  C5  H6  C7  C8  C9  C10 C11 H12 H13 C14 H15 C16 
C17 H18 H19 H20 C21 C22 H23 C24 C25 H26 C27 C28 H29 C30 C31 H32 C33 H34 H35 H36 
C1  C2  C3  C4  C5  H6  C7  C8  C9  C10 C11 H12 H13 C14 H15 C16 C17 H18 H19 H20 
C21 C22 H23 C24 C25 H26 C27 C28 H29 C30 C31 H32 C33 H34 H35 H36 C1  C2  C3  C4  
C5  H6  C7  C8  C9  C10 C11 H12 H13 C14 H15 C16 C17 H18 H19 H20 C21 C22 H23 C24 
C25 H26 C27 C28 H29 C30 C31 H32 C33 H34 H35 H36 C1  C2  C3  C4  C5  H6  C7  C8  
C9  C10 C11 H12 H13 C14 H15 C16 C17 H18 H19 H20 C21 C22 H23 C24 C25 H26 C27 C28 
H29 C30 C31 H32 C33 H34 H35 H36 C1  C2  C3  C4  C5  H6  C7  C8  C9  C10 C11 H12 
H13 C14 H15 C16 C17 H18 H19 H20 C21 C22 H23 C24 C25 H26 C27 C28 H29 C30 C31 H32 
C33 H34 H35 H36 C1  C2  C3  C4  C5  H6  C7  C8  C9  C10 C11 H12 H13 C14 H15 C16 
C17 H18 H19 H20 C21 C22 H23 C24 C25 H26 C27 C28 H29 C30 C31 H32 C33 H34 H35 H36 
C1  C2  C3  C4  C5  H6  C7  C8  C9  C10 C11 H12 H13 C14 H15 C16 C17 H18 H19 H20 
C21 C22 H23 C24 C25 H26 C27 C28 H29 C30 C31 H32 C33 H34 H35 H36 C1  C2  C3  C4  
C5  H6  C7  C8  C9  C10 C11 H12 H13 C14 H15 C16 C17 H18 H19 H20 C21 C22 H23 C24 
C25 H26 C27 C28 H29 C30 C31 H32 C33 H34 H35 H36 C1  C2  C3  C4  C5  H6  C7  C8  
C9  C10 C11 H12 H13 C14 H15 C16 C17 H18 H19 H20 C21 C22 H23 C24 C25 H26 C27 C28 
H29 C30 C31 H32 C33 H34 H35 H36 C1  C2  C3  C4  C5  H6  C7  C8  C9  C10 C11 H12 
H13 C14 H15 C16 C17 H18 H19 H20 C21 C22 H23 C24 C25 H26 C27 C28 H29 C30 C31 H32 
C33 H34 H35 H36 C1  C2  C3  C4  C5  H6  C7  C8  C9  C10 C11 H12 H13 C14 H15 C16 
C17 H18 H19 H20 C21 C22 H23 C24 C25 H26 C27 C28 H29 C30 C31 H32 C33 H34 H35 H36 
C1  C2  C3  C4  C5  H6  C7  C8  C9  C10 C11 H12 H13 C14 H15 C16 C17 H18 H19 H20 
C21 C22 H23 C24 C25 H26 C27 C28 H29 C30 C31 H32 C33 H34 H35 H36 C1  C2  C3  C4  
C5  H6  C7  C8  C9  C10 C11 H12 H13 C14 H15 C16 C17 H18 H19 H20 C21 C22 H23 C24 
C25 H26 C27 C28 H29 C30 C31 H32 C33 H34 H35 H36 C1  C2  C3  C4  C5  H6  C7  C8  
C9  C10 C11 H12 H13 C14 H15 C16 C17 H18 H19 H20 C21 C22 H23 C24 C25 H26 C27 C28 
H29 C30 C31 H32 C33 H34 H35 H36 C1  C2  C3  C4  C5  H6  C7  C8  C9  C10 C11 H12 
H13 C14 H15 C16 C17 H18 H19 H20 C21 C22 H23 C24 C25 H26 C27 C28 H29 C30 C31 H32 
C33 H34 H35 H36 C1  C2  C3  C4  C5  H6  C7  C8  C9  C10 C11 H12 H13 C14 H15 C16 
C17 H18 H19 H20 C21 C22 H23 C24 C25 H26 C27 C28 H29 C30 C31 H32 C33 H34 H35 H36 
C1  C2  C3  C4  C5  H6  C7  C8  C9  C10 C11 H12 H13 C14 H15 C16 C17 H18 H19 H20 
C21 C22 H23 C24 C25 H26 C27 C28 H29 C30 C31 H32 C33 H34 H35 H36 C1  C2  C3  C4  
C5  H6  C7  C8  C9  C10 C11 H12 H13 C14 H15 C16 C17 H18 H19 H20 C21 C22 H23 C24 
C25 H26 C27 C28 H29 C30 C31 H32 C33 H34 H35 H36 C1  C2  C3  C4  C5  H6  C7  C8  
C9  C10 C11 H12 H13 C14 H15 C16 C17 H18 H19 H20 C21 C22 H23 C24 C25 H26 C27 C28 
H29 C30 C31 H32 C33 H34 H35 H36 C1  C2  C3  C4  C5  H6  C7  C8  C9  C10 C11 H12 
H13 C14 H15 C16 C17 H18 H19 H20 C21 C22 H23 C24 C25 H26 C27 C28 H29 C30 C31 H32 
C33 H34 H35 H36 C1  C2  C3  C4  C5  H6  C7  C8  C9  C10 C11 H12 H13 C14 H15 C16 
C17 H18 H19 H20 C21 C22 H23 C24 C25 H26 C27 C28 H29 C30 C31 H32 C33 H34 H35 H36 
C1  C2  C3  C4  C5  H6  C7  C8  C9  C10 C11 H12 H13 C14 H15 C16 C17 H18 H19 H20 
C21 C22 H23 C24 C25 H26 C27 C28 H29 C30 C31 H32 C33 H34 H35 H36 C1  C2  C3  C4  
C5  H6  C7  C8  C9  C10 C11 H12 H13 C14 H15 C16 C17 H18 H19 H20 C21 C22 H23 C24 
C25 H26 C27 C28 H29 C30 C31 H32 C33 H34 H35 H36 C1  C2  C3  C4  C5  H6  C7  C8  
C9  C10 C11 H12 H13 C14 H15 C16 C17 H18 H19 H20 C21 C22 H23 C24 C25 H26 C27 C28 
H29 C30 C31 H32 C33 H34 H35 H36 C1  C2  C3  C4  C5  H6  C7  C8  C9  C10 C11 H12 
H13 C14 H15 C16 C17 H18 H19 H20 C21 C22 H23 C24 C25 H26 C27 C28 H29 C30 C31 H32 
C33 H34 H35 H36 C1  C2  C3  C4  C5  H6  C7  C8  C9  C10 C11 H12 H13 C14 H15 C16 
C17 H18 H19 H20 C21 C22 H23 C24 C25 H26 C27 C28 H29 C30 C31 H32 C33 H34 H35 H36 
C1  C2  C3  C4  C5  H6  C7  C8  C9  C10 C11 H12 H13 C14 H15 C16 C17 H18 H19 H20 
C21 C22 H23 C24 C25 H26 C27 C28 H29 C30 C31 H32 C33 H34 H35 H36 C1  C2  C3  C4  
C5  H6  C7  C8  C9  C10 C11 H12 H13 C14 H15 C16 C17 H18 H19 H20 C21 C22 H23 C24 
C25 H26 C27 C28 H29 C30 C31 H32 C33 H34 H35 H36 C1  C2  C3  C4  C5  H6  C7  C8  
C9  C10 C11 H12 H13 C14 H15 C16 C17 H18 H19 H20 C21 C22 H23 C24 C25 H26 C27 C28 
H29 C30 C31 H32 C33 H34 H35 H36 C1  C2  C3  C4  C5  H6  C7  C8  C9  C10 C11 H12 
H13 C14 H15 C16 C17 H18 H19 H20 C21 C22 H23 C24 C25 H26 C27 C28 H29 C30 C31 H32 
C33 H34 H35 H36 C1  C2  C3  C4  C5  H6  C7  C8  C9  C10 C11 H12 H13 C14 H15 C16 
C17 H18 H19 H20 C21 C22 H23 C24 C25 H26 C27 C28 H29 C30 C31 H32 C33 H34 H35 H36 
C1  C2  C3  C4  C5  H6  C7  C8  C9  C10 C11 H12 H13 C14 H15 C16 C17 H18 H19 H20 
C21 C22 H23 C24 C25 H26 C27 C28 H29 C30 C31 H32 C33 H34 H35 H36 C1  C2  C3  C4  
C5  H6  C7  C8  C9  C10 C11 H12 H13 C14 H15 C16 C17 H18 H19 H20 C21 C22 H23 C24 
C25 H26 C27 C28 H29 C30 C31 H32 C33 H34 H35 H36 C1  C2  C3  C4  C5  H6  C7  C8  
C9  C10 C11 H12 H13 C14 H15 C16 C17 H18 H19 H20 C21 C22 H23 C24 C25 H26 C27 C28 
H29 C30 C31 H32 C33 H34 H35 H36 C1  C2  C3  C4  C5  H6  C7  C8  C9  C10 C11 H12 
H13 C14 H15 C16 C17 H18 H19 H20 C21 C22 H23 C24 C25 H26 C27 C28 H29 C30 C31 H32 
C33 H34 H35 H36 C1  C2  C3  C4  C5  H6  C7  C8  C9  C10 C11 H12 H13 C14 H15 C16 
C17 H18 H19 H20 C21 C22 H23 C24 C25 H26 C27 C28 H29 C30 C31 H32 C33 H34 H35 H36 
C1  C2  C3  C4  C5  H6  C7  C8  C9  C10 C11 H12 H13 C14 H15 C16 C17 H18 H19 H20 
C21 C22 H23 C24 C25 H26 C27 C28 H29 C30 C31 H32 C33 H34 H35 H36 C1  C2  C3  C4  
C5  H6  C7  C8  C9  C10 C11 H12 H13 C14 H15 C16 C17 H18 H19 H20 C21 C22 H23 C24 
C25 H26 C27 C28 H29 C30 C31 H32 C33 H34 H35 H36 C1  C2  C3  C4  C5  H6  C7  C8  
C9  C10 C11 H12 H13 C14 H15 C16 C17 H18 H19 H20 C21 C22 H23 C24 C25 H26 C27 C28 
H29 C30 C31 H32 C33 H34 H35 H36 C1  C2  C3  C4  C5  H6  C7  C8  C9  C10 C11 H12 
H13 C14 H15 C16 C17 H18 H19 H20 C21 C22 H23 C24 C25 H26 C27 C28 H29 C30 C31 H32 
C33 H34 H35 H36 C1  C2  C3  C4  C5  H6  C7  C8  C9  C10 C11 H12 H13 C14 H15 C16 
C17 H18 H19 H20 C21 C22 H23 C24 C25 H26 C27 C28 H29 C30 C31 H32 C33 H34 H35 H36 
C1  C2  C3  C4  C5  H6  C7  C8  C9  C10 C11 H12 H13 C14 H15 C16 C17 H18 H19 H20 
C21 C22 H23 C24 C25 H26 C27 C28 H29 C30 C31 H32 C33 H34 H35 H36 C1  C2  C3  C4  
C5  H6  C7  C8  C9  C10 C11 H12 H13 C14 H15 C16 C17 H18 H19 H20 C21 C22 H23 C24 
C25 H26 C27 C28 H29 C30 C31 H32 C33 H34 H35 H36 C1  C2  C3  C4  C5  H6  C7  C8  
C9  C10 C11 H12 H13 C14 H15 C16 C17 H18 H19 H20 C21 C22 H23 C24 C25 H26 C27 C28 
H29 C30 C31 H32 C33 H34 H35 H36 C1  C2  C3  C4  C5  H6  C7  C8  C9  C10 C11 H12 
H13 C14 H15 C16 C17 H18 H19 H20 C21 C22 H23 C24 C25 H26 C27 C28 H29 C30 C31 H32 
C33 H34 H35 H36 C1  C2  C3  C4  C5  H6  C7  C8  C9  C10 C11 H12 H13 C14 H15 C16 
C17 H18 H19 H20 C21 C22 H23 C24 C25 H26 C27 C28 H29 C30 C31 H32 C33 H34 H35 H36 
C1  C2  C3  C4  C5  H6  C7  C8  C9  C10 C11 H12 H13 C14 H15 C16 C17 H18 H19 H20 
C21 C22 H23 C24 C25 H26 C27 C28 H29 C30 C31 H32 C33 H34 H35 H36 C1  C2  C3  C4  
C5  H6  C7  C8  C9  C10 C11 H12 H13 C14 H15 C16 C17 H18 H19 H20 C21 C22 H23 C24 
C25 H26 C27 C28 H29 C30 C31 H32 C33 H34 H35 H36 C1  C2  C3  C4  C5  H6  C7  C8  
C9  C10 C11 H12 H13 C14 H15 C16 C17 H18 H19 H20 C21 C22 H23 C24 C25 H26 C27 C28 
H29 C30 C31 H32 C33 H34 H35 H36 C1  C2  C3  C4  C5  H6  C7  C8  C9  C10 C11 H12 
H13 C14 H15 C16 C17 H18 H19 H20 C21 C22 H23 C24 C25 H26 C27 C28 H29 C30 C31 H32 
C33 H34 H35 H36 C1  C2  C3  C4  C5  H6  C7  C8  C9  C10 C11 H12 H13 C14 H15 C16 
C17 H18 H19 H20 C21 C22 H23 C24 C25 H26 C27 C28 H29 C30 C31 H32 C33 H34 H35 H36 
C1  C2  C3  C4  C5  H6  C7  C8  C9  C10 C11 H12 H13 C14 H15 C16 C17 H18 H19 H20 
C21 C22 H23 C24 C25 H26 C27 C28 H29 C30 C31 H32 C33 H34 H35 H36 C1  C2  C3  C4  
C5  H6  C7  C8  C9  C10 C11 H12 H13 C14 H15 C16 C17 H18 H19 H20 C21 C22 H23 C24 
C25 H26 C27 C28 H29 C30 C31 H32 C33 H34 H35 H36 C1  C2  C3  C4  C5  H6  C7  C8  
C9  C10 C11 H12 H13 C14 H15 C16 C17 H18 H19 H20 C21 C22 H23 C24 C25 H26 C27 C28 
H29 C30 C31 H32 C33 H34 H35 H36 C1  C2  C3  C4  C5  H6  C7  C8  C9  C10 C11 H12 
H13 C14 H15 C16 C17 H18 H19 H20 C21 C22 H23 C24 C25 H26 C27 C28 H29 C30 C31 H32 
C33 H34 H35 H36 C1  C2  C3  C4  C5  H6  C7  C8  C9  C10 C11 H12 H13 C14 H15 C16 
C17 H18 H19 H20 C21 C22 H23 C24 C25 H26 C27 C28 H29 C30 C31 H32 C33 H34 H35 H36 
C1  C2  C3  C4  C5  H6  C7  C8  C9  C10 C11 H12 H13 C14 H15 C16 C17 H18 H19 H20 
C21 C22 H23 C24 C25 H26 C27 C28 H29 C30 C31 H32 C33 H34 H35 H36 C1  C2  C3  C4  
C5  H6  C7  C8  C9  C10 C11 H12 H13 C14 H15 C16 C17 H18 H19 H20 C21 C22 H23 C24 
C25 H26 C27 C28 H29 C30 C31 H32 C33 H34 H35 H36 C1  C2  C3  C4  C5  H6  C7  C8  
C9  C10 C11 H12 H13 C14 H15 C16 C17 H18 H19 H20 C21 C22 H23 C24 C25 H26 C27 C28 
H29 C30 C31 H32 C33 H34 H35 H36 C1  C2  C3  C4  C5  H6  C7  C8  C9  C10 C11 H12 
H13 C14 H15 C16 C17 H18 H19 H20 C21 C22 H23 C24 C25 H26 C27 C28 H29 C30 C31 H32 
C33 H34 H35 H36 C1  C2  C3  C4  C5  H6  C7  C8  C9  C10 C11 H12 H13 C14 H15 C16 
C17 H18 H19 H20 C21 C22 H23 C24 C25 H26 C27 C28 H29 C30 C31 H32 C33 H34 H35 H36 
C1  C2  C3  C4  C5  H6  C7  C8  C9  C10 C11 H12 H13 C14 H15 C16 C17 H18 H19 H20 
C21 C22 H23 C24 C25 H26 C27 C28 H29 C30 C31 H32 C33 H34 H35 H36 C1  C2  C3  C4  
C5  H6  C7  C8  C9  C10 C11 H12 H13 C14 H15 C16 C17 H18 H19 H20 C21 C22 H23 C24 
C25 H26 C27 C28 H29 C30 C31 H32 C33 H34 H35 H36 C1  C2  C3  C4  C5  H6  C7  C8  
C9  C10 C11 H12 H13 C14 H15 C16 C17 H18 H19 H20 C21 C22 H23 C24 C25 H26 C27 C28 
H29 C30 C31 H32 C33 H34 H35 H36 C1  C2  C3  C4  C5  H6  C7  C8  C9  C10 C11 H12 
H13 C14 H15 C16 C17 H18 H19 H20 C21 C22 H23 C24 C25 H26 C27 C28 H29 C30 C31 H32 
C33 H34 H35 H36 C1  C2  C3  C4  C5  H6  C7  C8  C9  C10 C11 H12 H13 C14 H15 C16 
C17 H18 H19 H20 C21 C22 H23 C24 C25 H26 C27 C28 H29 C30 C31 H32 C33 H34 H35 H36 
C1  C2  C3  C4  C5  H6  C7  C8  C9  C10 C11 H12 H13 C14 H15 C16 C17 H18 H19 H20 
C21 C22 H23 C24 C25 H26 C27 C28 H29 C30 C31 H32 C33 H34 H35 H36 C1  C2  C3  C4  
C5  H6  C7  C8  C9  C10 C11 H12 H13 C14 H15 C16 C17 H18 H19 H20 C21 C22 H23 C24 
C25 H26 C27 C28 H29 C30 C31 H32 C33 H34 H35 H36 C1  C2  C3  C4  C5  H6  C7  C8  
C9  C10 C11 H12 H13 C14 H15 C16 C17 H18 H19 H20 C21 C22 H23 C24 C25 H26 C27 C28 
H29 C30 C31 H32 C33 H34 H35 H36 C1  C2  C3  C4  C5  H6  C7  C8  C9  C10 C11 H12 
H13 C14 H15 C16 C17 H18 H19 H20 C21 C22 H23 C24 C25 H26 C27 C28 H29 C30 C31 H32 
C33 H34 H35 H36 C1  C2  C3  C4  C5  H6  C7  C8  C9  C10 C11 H12 H13 C14 H15 C16 
C17 H18 H19 H20 C21 C22 H23 C24 C25 H26 C27 C28 H29 C30 C31 H32 C33 H34 H35 H36 
C1  C2  C3  C4  C5  H6  C7  C8  C9  C10 C11 H12 H13 C14 H15 C16 C17 H18 H19 H20 
C21 C22 H23 C24 C25 H26 C27 C28 H29 C30 C31 H32 C33 H34 H35 H36 C1  C2  C3  C4  
C5  H6  C7  C8  C9  C10 C11 H12 H13 C14 H15 C16 C17 H18 H19 H20 C21 C22 H23 C24 
C25 H26 C27 C28 H29 C30 C31 H32 C33 H34 H35 H36 C1  C2  C3  C4  C5  H6  C7  C8  
C9  C10 C11 H12 H13 C14 H15 C16 C17 H18 H19 H20 C21 C22 H23 C24 C25 H26 C27 C28 
H29 C30 C31 H32 C33 H34 H35 H36 C1  C2  C3  C4  C5  H6  C7  C8  C9  C10 C11 H12 
H13 C14 H15 C16 C17 H18 H19 H20 C21 C22 H23 C24 C25 H26 C27 C28 H29 C30 C31 H32 
C33 H34 H35 H36 C1  C2  C3  C4  C5  H6  C7  C8  C9  C10 C11 H12 H13 C14 H15 C16 
C17 H18 H19 H20 C21 C22 H23 C24 C25 H26 C27 C28 H29 C30 C31 H32 C33 H34 H35 H36 
C1  C2  C3  C4  C5  H6  C7  C8  C9  C10 C11 H12 H13 C14 H15 C16 C17 H18 H19 H20 
C21 C22 H23 C24 C25 H26 C27 C28 H29 C30 C31 H32 C33 H34 H35 H36 C1  C2  C3  C4  
C5  H6  C7  C8  C9  C10 C11 H12 H13 C14 H15 C16 C17 H18 H19 H20 C21 C22 H23 C24 
C25 H26 C27 C28 H29 C30 C31 H32 C33 H34 H35 H36 C1  C2  C3  C4  C5  H6  C7  C8  
C9  C10 C11 H12 H13 C14 H15 C16 C17 H18 H19 H20 C21 C22 H23 C24 C25 H26 C27 C28 
H29 C30 C31 H32 C33 H34 H35 H36 C1  C2  C3  C4  C5  H6  C7  C8  C9  C10 C11 H12 
H13 C14 H15 C16 C17 H18 H19 H20 C21 C22 H23 C24 C25 H26 C27 C28 H29 C30 C31 H32 
C33 H34 H35 H36 C1  C2  C3  C4  C5  H6  C7  C8  C9  C10 C11 H12 H13 C14 H15 C16 
C17 H18 H19 H20 C21 C22 H23 C24 C25 H26 C27 C28 H29 C30 C31 H32 C33 H34 H35 H36 
C1  C2  C3  C4  C5  H6  C7  C8  C9  C10 C11 H12 H13 C14 H15 C16 C17 H18 H19 H20 
C21 C22 H23 C24 C25 H26 C27 C28 H29 C30 C31 H32 C33 H34 H35 H36 C1  C2  C3  C4  
C5  H6  C7  C8  C9  C10 C11 H12 H13 C14 H15 C16 C17 H18 H19 H20 C21 C22 H23 C24 
C25 H26 C27 C28 H29 C30 C31 H32 C33 H34 H35 H36 C1  C2  C3  C4  C5  H6  C7  C8  
C9  C10 C11 H12 H13 C14 H15 C16 C17 H18 H19 H20 C21 C22 H23 C24 C25 H26 C27 C28 
H29 C30 C31 H32 C33 H34 H35 H36 C1  C2  C3  C4  C5  H6  C7  C8  C9  C10 C11 H12 
H13 C14 H15 C16 C17 H18 H19 H20 C21 C22 H23 C24 C25 H26 C27 C28 H29 C30 C31 H32 
C33 H34 H35 H36 C1  C2  C3  C4  C5  H6  C7  C8  C9  C10 C11 H12 H13 C14 H15 C16 
C17 H18 H19 H20 C21 C22 H23 C24 C25 H26 C27 C28 H29 C30 C31 H32 C33 H34 H35 H36 
C1  C2  C3  C4  C5  H6  C7  C8  C9  C10 C11 H12 H13 C14 H15 C16 C17 H18 H19 H20 
C21 C22 H23 C24 C25 H26 C27 C28 H29 C30 C31 H32 C33 H34 H35 H36 C1  C2  C3  C4  
C5  H6  C7  C8  C9  C10 C11 H12 H13 C14 H15 C16 C17 H18 H19 H20 C21 C22 H23 C24 
C25 H26 C27 C28 H29 C30 C31 H32 C33 H34 H35 H36 C1  C2  C3  C4  C5  H6  C7  C8  
C9  C10 C11 H12 H13 C14 H15 C16 C17 H18 H19 H20 C21 C22 H23 C24 C25 H26 C27 C28 
H29 C30 C31 H32 C33 H34 H35 H36 C1  C2  C3  C4  C5  H6  C7  C8  C9  C10 C11 H12 
H13 C14 H15 C16 C17 H18 H19 H20 C21 C22 H23 C24 C25 H26 C27 C28 H29 C30 C31 H32 
C33 H34 H35 H36 C1  C2  C3  C4  C5  H6  C7  C8  C9  C10 C11 H12 H13 C14 H15 C16 
C17 H18 H19 H20 C21 C22 H23 C24 C25 H26 C27 C28 H29 C30 C31 H32 C33 H34 H35 H36 
C1  C2  C3  C4  C5  H6  C7  C8  C9  C10 C11 H12 H13 C14 H15 C16 C17 H18 H19 H20 
C21 C22 H23 C24 C25 H26 C27 C28 H29 C30 C31 H32 C33 H34 H35 H36 C1  C2  C3  C4  
C5  H6  C7  C8  C9  C10 C11 H12 H13 C14 H15 C16 C17 H18 H19 H20 C21 C22 H23 C24 
C25 H26 C27 C28 H29 C30 C31 H32 C33 H34 H35 H36 C1  C2  C3  C4  C5  H6  C7  C8  
C9  C10 C11 H12 H13 C14 H15 C16 C17 H18 H19 H20 C21 C22 H23 C24 C25 H26 C27 C28 
H29 C30 C31 H32 C33 H34 H35 H36 C1  C2  C3  C4  C5  H6  C7  C8  C9  C10 C11 H12 
H13 C14 H15 C16 C17 H18 H19 H20 C21 C22 H23 C24 C25 H26 C27 C28 H29 C30 C31 H32 
C33 H34 H35 H36 C1  C2  C3  C4  C5  H6  C7  C8  C9  C10 C11 H12 H13 C14 H15 C16 
C17 H18 H19 H20 C21 C22 H23 C24 C25 H26 C27 C28 H29 C30 C31 H32 C33 H34 H35 H36 
C1  C2  C3  C4  C5  H6  C7  C8  C9  C10 C11 H12 H13 C14 H15 C16 C17 H18 H19 H20 
C21 C22 H23 C24 C25 H26 C27 C28 H29 C30 C31 H32 C33 H34 H35 H36 C1  C2  C3  C4  
C5  H6  C7  C8  C9  C10 C11 H12 H13 C14 H15 C16 C17 H18 H19 H20 C21 C22 H23 C24 
C25 H26 C27 C28 H29 C30 C31 H32 C33 H34 H35 H36 C1  C2  C3  C4  C5  H6  C7  C8  
C9  C10 C11 H12 H13 C14 H15 C16 C17 H18 H19 H20 C21 C22 H23 C24 C25 H26 C27 C28 
H29 C30 C31 H32 C33 H34 H35 H36 C1  C2  C3  C4  C5  H6  C7  C8  C9  C10 C11 H12 
H13 C14 H15 C16 C17 H18 H19 H20 C21 C22 H23 C24 C25 H26 C27 C28 H29 C30 C31 H32 
C33 H34 H35 H36 C1  C2  C3  C4  C5  H6  C7  C8  C9  C10 C11 H12 H13 C14 H15 C16 
C17 H18 H19 H20 C21 C22 H23 C24 C25 H26 C27 C28 H29 C30 C31 H32 C33 H34 H35 H36 
C1  C2  C3  C4  C5  H6  C7  C8  C9  C10 C11 H12 H13 C14 H15 C16 C17 H18 H19 H20 
C21 C22 H23 C24 C25 H26 C27 C28 H29 C30 C31 H32 C33 H34 H35 H36 C1  C2  C3  C4  
C5  H6  C7  C8  C9  C10 C11 H12 H13 C14 H15 C16 C17 H18 H19 H20 C21 C22 H23 C24 
C25 H26 C27 C28 H29 C30 C31 H32 C33 H34 H35 H36 C1  C2  C3  C4  C5  H6  C7  C8  
C9  C10 C11 H12 H13 C14 H15 C16 C17 H18 H19 H20 C21 C22 H23 C24 C25 H26 C27 C28 
H29 C30 C31 H32 C33 H34 H35 H36 C1  C2  C3  C4  C5  H6  C7  C8  C9  C10 C11 H12 
H13 C14 H15 C16 C17 H18 H19 H20 C21 C22 H23 C24 C25 H26 C27 C28 H29 C30 C31 H32 
C33 H34 H35 H36 C1  C2  C3  C4  C5  H6  C7  C8  C9  C10 C11 H12 H13 C14 H15 C16 
C17 H18 H19 H20 C21 C22 H23 C24 C25 H26 C27 C28 H29 C30 C31 H32 C33 H34 H35 H36 
C1  C2  C3  C4  C5  H6  C7  C8  C9  C10 C11 H12 H13 C14 H15 C16 C17 H18 H19 H20 
C21 C22 H23 C24 C25 H26 C27 C28 H29 C30 C31 H32 C33 H34 H35 H36 C1  C2  C3  C4  
C5  H6  C7  C8  C9  C10 C11 H12 H13 C14 H15 C16 C17 H18 H19 H20 C21 C22 H23 C24 
C25 H26 C27 C28 H29 C30 C31 H32 C33 H34 H35 H36 C1  C2  C3  C4  C5  H6  C7  C8  
C9  C10 C11 H12 H13 C14 H15 C16 C17 H18 H19 H20 C21 C22 H23 C24 C25 H26 C27 C28 
H29 C30 C31 H32 C33 H34 H35 H36 C1  C2  C3  C4  C5  H6  C7  C8  C9  C10 C11 H12 
H13 C14 H15 C16 C17 H18 H19 H20 C21 C22 H23 C24 C25 H26 C27 C28 H29 C30 C31 H32 
C33 H34 H35 H36 C1  C2  C3  C4  C5  H6  C7  C8  C9  C10 C11 H12 H13 C14 H15 C16 
C17 H18 H19 H20 C21 C22 H23 C24 C25 H26 C27 C28 H29 C30 C31 H32 C33 H34 H35 H36 
C1  C2  C3  C4  C5  H6  C7  C8  C9  C10 C11 H12 H13 C14 H15 C16 C17 H18 H19 H20 
C21 C22 H23 C24 C25 H26 C27 C28 H29 C30 C31 H32 C33 H34 H35 H36 C1  C2  C3  C4  
C5  H6  C7  C8  C9  C10 C11 H12 H13 C14 H15 C16 C17 H18 H19 H20 C21 C22 H23 C24 
C25 H26 C27 C28 H29 C30 C31 H32 C33 H34 H35 H36 C1  C2  C3  C4  C5  H6  C7  C8  
C9  C10 C11 H12 H13 C14 H15 C16 C17 H18 H19 H20 C21 C22 H23 C24 C25 H26 C27 C28 
H29 C30 C31 H32 C33 H34 H35 H36 C1  C2  C3  C4  C5  H6  C7  C8  C9  C10 C11 H12 
H13 C14 H15 C16 C17 H18 H19 H20 C21 C22 H23 C24 C25 H26 C27 C28 H29 C30 C31 H32 
C33 H34 H35 H36 C1  C2  C3  C4  C5  H6  C7  C8  C9  C10 C11 H12 H13 C14 H15 C16 
C17 H18 H19 H20 C21 C22 H23 C24 C25 H26 C27 C28 H29 C30 C31 H32 C33 H34 H35 H36 
C1  C2  C3  C4  C5  H6  C7  C8  C9  C10 C11 H12 H13 C14 H15 C16 C17 H18 H19 H20 
C21 C22 H23 C24 C25 H26 C27 C28 H29 C30 C31 H32 C33 H34 H35 H36 C1  C2  C3  C4  
C5  H6  C7  C8  C9  C10 C11 H12 H13 C14 H15 C16 C17 H18 H19 H20 C21 C22 H23 C24 
C25 H26 C27 C28 H29 C30 C31 H32 C33 H34 H35 H36 C1  C2  C3  C4  C5  H6  C7  C8  
C9  C10 C11 H12 H13 C14 H15 C16 C17 H18 H19 H20 C21 C22 H23 C24 C25 H26 C27 C28 
H29 C30 C31 H32 C33 H34 H35 H36 C1  C2  C3  C4  C5  H6  C7  C8  C9  C10 C11 H12 
H13 C14 H15 C16 C17 H18 H19 H20 C21 C22 H23 C24 C25 H26 C27 C28 H29 C30 C31 H32 
C33 H34 H35 H36 C1  C2  C3  C4  C5  H6  C7  C8  C9  C10 C11 H12 H13 C14 H15 C16 
C17 H18 H19 H20 C21 C22 H23 C24 C25 H26 C27 C28 H29 C30 C31 H32 C33 H34 H35 H36 
C1  C2  C3  C4  C5  H6  C7  C8  C9  C10 C11 H12 H13 C14 H15 C16 C17 H18 H19 H20 
C21 C22 H23 C24 C25 H26 C27 C28 H29 C30 C31 H32 C33 H34 H35 H36 C1  C2  C3  C4  
C5  H6  C7  C8  C9  C10 C11 H12 H13 C14 H15 C16 C17 H18 H19 H20 C21 C22 H23 C24 
C25 H26 C27 C28 H29 C30 C31 H32 C33 H34 H35 H36 C1  C2  C3  C4  C5  H6  C7  C8  
C9  C10 C11 H12 H13 C14 H15 C16 C17 H18 H19 H20 C21 C22 H23 C24 C25 H26 C27 C28 
H29 C30 C31 H32 C33 H34 H35 H36 C1  C2  C3  C4  C5  H6  C7  C8  C9  C10 C11 H12 
H13 C14 H15 C16 C17 H18 H19 H20 C21 C22 H23 C24 C25 H26 C27 C28 H29 C30 C31 H32 
C33 H34 H35 H36 C1  C2  C3  C4  C5  H6  C7  C8  C9  C10 C11 H12 H13 C14 H15 C16 
C17 H18 H19 H20 C21 C22 H23 C24 C25 H26 C27 C28 H29 C30 C31 H32 C33 H34 H35 H36 
C1  C2  C3  C4  C5  H6  C7  C8  C9  C10 C11 H12 H13 C14 H15 C16 C17 H18 H19 H20 
C21 C22 H23 C24 C25 H26 C27 C28 H29 C30 C31 H32 C33 H34 H35 H36 C1  C2  C3  C4  
C5  H6  C7  C8  C9  C10 C11 H12 H13 C14 H15 C16 C17 H18 H19 H20 C21 C22 H23 C24 
C25 H26 C27 C28 H29 C30 C31 H32 C33 H34 H35 H36 C1  C2  C3  C4  C5  H6  C7  C8  
C9  C10 C11 H12 H13 C14 H15 C16 C17 H18 H19 H20 C21 C22 H23 C24 C25 H26 C27 C28 
H29 C30 C31 H32 C33 H34 H35 H36 C1  C2  C3  C4  C5  H6  C7  C8  C9  C10 C11 H12 
H13 C14 H15 C16 C17 H18 H19 H20 C21 C22 H23 C24 C25 H26 C27 C28 H29 C30 C31 H32 
C33 H34 H35 H36 C1  C2  C3  C4  C5  H6  C7  C8  C9  C10 C11 H12 H13 C14 H15 C16 
C17 H18 H19 H20 C21 C22 H23 C24 C25 H26 C27 C28 H29 C30 C31 H32 C33 H34 H35 H36 
C1  C2  C3  C4  C5  H6  C7  C8  C9  C10 C11 H12 H13 C14 H15 C16 C17 H18 H19 H20 
C21 C22 H23 C24 C25 H26 C27 C28 H29 C30 C31 H32 C33 H34 H35 H36 C1  C2  C3  C4  
C5  H6  C7  C8  C9  C10 C11 H12 H13 C14 H15 C16 C17 H18 H19 H20 C21 C22 H23 C24 
C25 H26 C27 C28 H29 C30 C31 H32 C33 H34 H35 H36 C1  C2  C3  C4  C5  H6  C7  C8  
C9  C10 C11 H12 H13 C14 H15 C16 C17 H18 H19 H20 C21 C22 H23 C24 C25 H26 C27 C28 
H29 C30 C31 H32 C33 H34 H35 H36 C1  C2  C3  C4  C5  H6  C7  C8  C9  C10 C11 H12 
H13 C14 H15 C16 C17 H18 H19 H20 C21 C22 H23 C24 C25 H26 C27 C28 H29 C30 C31 H32 
C33 H34 H35 H36 C1  C2  C3  C4  C5  H6  C7  C8  C9  C10 C11 H12 H13 C14 H15 C16 
C17 H18 H19 H20 C21 C22 H23 C24 C25 H26 C27 C28 H29 C30 C31 H32 C33 H34 H35 H36 
C1  C2  C3  C4  C5  H6  C7  C8  C9  C10 C11 H12 H13 C14 H15 C16 C17 H18 H19 H20 
C21 C22 H23 C24 C25 H26 C27 C28 H29 C30 C31 H32 C33 H34 H35 H36 C1  C2  C3  C4  
C5  H6  C7  C8  C9  C10 C11 H12 H13 C14 H15 C16 C17 H18 H19 H20 C21 C22 H23 C24 
C25 H26 C27 C28 H29 C30 C31 H32 C33 H34 H35 H36 C1  C2  C3  C4  C5  H6  C7  C8  
C9  C10 C11 H12 H13 C14 H15 C16 C17 H18 H19 H20 C21 C22 H23 C24 C25 H26 C27 C28 
H29 C30 C31 H32 C33 H34 H35 H36 C1  C2  C3  C4  C5  H6  C7  C8  C9  C10 C11 H12 
H13 C14 H15 C16 C17 H18 H19 H20 C21 C22 H23 C24 C25 H26 C27 C28 H29 C30 C31 H32 
C33 H34 H35 H36 C1  C2  C3  C4  C5  H6  C7  C8  C9  C10 C11 H12 H13 C14 H15 C16 
C17 H18 H19 H20 C21 C22 H23 C24 C25 H26 C27 C28 H29 C30 C31 H32 C33 H34 H35 H36 
C1  C2  C3  C4  C5  H6  C7  C8  C9  C10 C11 H12 H13 C14 H15 C16 C17 H18 H19 H20 
C21 C22 H23 C24 C25 H26 C27 C28 H29 C30 C31 H32 C33 H34 H35 H36 C1  C2  C3  C4  
C5  H6  C7  C8  C9  C10 C11 H12 H13 C14 H15 C16 C17 H18 H19 H20 C21 C22 H23 C24 
C25 H26 C27 C28 H29 C30 C31 H32 C33 H34 H35 H36 C1  C2  C3  C4  C5  H6  C7  C8  
C9  C10 C11 H12 H13 C14 H15 C16 C17 H18 H19 H20 C21 C22 H23 C24 C25 H26 C27 C28 
H29 C30 C31 H32 C33 H34 H35 H36 C1  C2  C3  C4  C5  H6  C7  C8  C9  C10 C11 H12 
H13 C14 H15 C16 C17 H18 H19 H20 C21 C22 H23 C24 C25 H26 C27 C28 H29 C30 C31 H32 
C33 H34 H35 H36 C1  C2  C3  C4  C5  H6  C7  C8  C9  C10 C11 H12 H13 C14 H15 C16 
C17 H18 H19 H20 C21 C22 H23 C24 C25 H26 C27 C28 H29 C30 C31 H32 C33 H34 H35 H36 
C1  C2  C3  C4  C5  H6  C7  C8  C9  C10 C11 H12 H13 C14 H15 C16 C17 H18 H19 H20 
C21 C22 H23 C24 C25 H26 C27 C28 H29 C30 C31 H32 C33 H34 H35 H36 C1  C2  C3  C4  
C5  H6  C7  C8  C9  C10 C11 H12 H13 C14 H15 C16 C17 H18 H19 H20 C21 C22 H23 C24 
C25 H26 C27 C28 H29 C30 C31 H32 C33 H34 H35 H36 C1  C2  C3  C4  C5  H6  C7  C8  
C9  C10 C11 H12 H13 C14 H15 C16 C17 H18 H19 H20 C21 C22 H23 C24 C25 H26 C27 C28 
H29 C30 C31 H32 C33 H34 H35 H36 C1  C2  C3  C4  C5  H6  C7  C8  C9  C10 C11 H12 
H13 C14 H15 C16 C17 H18 H19 H20 C21 C22 H23 C24 C25 H26 C27 C28 H29 C30 C31 H32 
C33 H34 H35 H36 C1  C2  C3  C4  C5  H6  C7  C8  C9  C10 C11 H12 H13 C14 H15 C16 
C17 H18 H19 H20 C21 C22 H23 C24 C25 H26 C27 C28 H29 C30 C31 H32 C33 H34 H35 H36 
C1  C2  C3  C4  C5  H6  C7  C8  C9  C10 C11 H12 H13 C14 H15 C16 C17 H18 H19 H20 
C21 C22 H23 C24 C25 H26 C27 C28 H29 C30 C31 H32 C33 H34 H35 H36 C1  C2  C3  C4  
C5  H6  C7  C8  C9  C10 C11 H12 H13 C14 H15 C16 C17 H18 H19 H20 C21 C22 H23 C24 
C25 H26 C27 C28 H29 C30 C31 H32 C33 H34 H35 H36 C1  C2  C3  C4  C5  H6  C7  C8  
C9  C10 C11 H12 H13 C14 H15 C16 C17 H18 H19 H20 C21 C22 H23 C24 C25 H26 C27 C28 
H29 C30 C31 H32 C33 H34 H35 H36 C1  C2  C3  C4  C5  H6  C7  C8  C9  C10 C11 H12 
H13 C14 H15 C16 C17 H18 H19 H20 C21 C22 H23 C24 C25 H26 C27 C28 H29 C30 C31 H32 
C33 H34 H35 H36 C1  C2  C3  C4  C5  H6  C7  C8  C9  C10 C11 H12 H13 C14 H15 C16 
C17 H18 H19 H20 C21 C22 H23 C24 C25 H26 C27 C28 H29 C30 C31 H32 C33 H34 H35 H36 
C1  C2  C3  C4  C5  H6  C7  C8  C9  C10 C11 H12 H13 C14 H15 C16 C17 H18 H19 H20 
C21 C22 H23 C24 C25 H26 C27 C28 H29 C30 C31 H32 C33 H34 H35 H36 C1  C2  C3  C4  
C5  H6  C7  C8  C9  C10 C11 H12 H13 C14 H15 C16 C17 H18 H19 H20 C21 C22 H23 C24 
C25 H26 C27 C28 H29 C30 C31 H32 C33 H34 H35 H36 C1  C2  C3  C4  C5  H6  C7  C8  
C9  C10 C11 H12 H13 C14 H15 C16 C17 H18 H19 H20 C21 C22 H23 C24 C25 H26 C27 C28 
H29 C30 C31 H32 C33 H34 H35 H36 C1  C2  C3  C4  C5  H6  C7  C8  C9  C10 C11 H12 
H13 C14 H15 C16 C17 H18 H19 H20 C21 C22 H23 C24 C25 H26 C27 C28 H29 C30 C31 H32 
C33 H34 H35 H36 C1  C2  C3  C4  C5  H6  C7  C8  C9  C10 C11 H12 H13 C14 H15 C16 
C17 H18 H19 H20 C21 C22 H23 C24 C25 H26 C27 C28 H29 C30 C31 H32 C33 H34 H35 H36 
C1  C2  C3  C4  C5  H6  C7  C8  C9  C10 C11 H12 H13 C14 H15 C16 C17 H18 H19 H20 
C21 C22 H23 C24 C25 H26 C27 C28 H29 C30 C31 H32 C33 H34 H35 H36 C1  C2  C3  C4  
C5  H6  C7  C8  C9  C10 C11 H12 H13 C14 H15 C16 C17 H18 H19 H20 C21 C22 H23 C24 
C25 H26 C27 C28 H29 C30 C31 H32 C33 H34 H35 H36 C1  C2  C3  C4  C5  H6  C7  C8  
C9  C10 C11 H12 H13 C14 H15 C16 C17 H18 H19 H20 C21 C22 H23 C24 C25 H26 C27 C28 
H29 C30 C31 H32 C33 H34 H35 H36 C1  C2  C3  C4  C5  H6  C7  C8  C9  C10 C11 H12 
H13 C14 H15 C16 C17 H18 H19 H20 C21 C22 H23 C24 C25 H26 C27 C28 H29 C30 C31 H32 
C33 H34 H35 H36 C1  C2  C3  C4  C5  H6  C7  C8  C9  C10 C11 H12 H13 C14 H15 C16 
C17 H18 H19 H20 C21 C22 H23 C24 C25 H26 C27 C28 H29 C30 C31 H32 C33 H34 H35 H36 
C1  C2  C3  C4  C5  H6  C7  C8  C9  C10 C11 H12 H13 C14 H15 C16 C17 H18 H19 H20 
C21 C22 H23 C24 C25 H26 C27 C28 H29 C30 C31 H32 C33 H34 H35 H36 C1  C2  C3  C4  
C5  H6  C7  C8  C9  C10 C11 H12 H13 C14 H15 C16 C17 H18 H19 H20 C21 C22 H23 C24 
C25 H26 C27 C28 H29 C30 C31 H32 C33 H34 H35 H36 C1  C2  C3  C4  C5  H6  C7  C8  
C9  C10 C11 H12 H13 C14 H15 C16 C17 H18 H19 H20 C21 C22 H23 C24 C25 H26 C27 C28 
H29 C30 C31 H32 C33 H34 H35 H36 C1  C2  C3  C4  C5  H6  C7  C8  C9  C10 C11 H12 
H13 C14 H15 C16 C17 H18 H19 H20 C21 C22 H23 C24 C25 H26 C27 C28 H29 C30 C31 H32 
C33 H34 H35 H36 C1  C2  C3  C4  C5  H6  C7  C8  C9  C10 C11 H12 H13 C14 H15 C16 
C17 H18 H19 H20 C21 C22 H23 C24 C25 H26 C27 C28 H29 C30 C31 H32 C33 H34 H35 H36 
C1  C2  C3  C4  C5  H6  C7  C8  C9  C10 C11 H12 H13 C14 H15 C16 C17 H18 H19 H20 
C21 C22 H23 C24 C25 H26 C27 C28 H29 C30 C31 H32 C33 H34 H35 H36 C1  C2  C3  C4  
C5  H6  C7  C8  C9  C10 C11 H12 H13 C14 H15 C16 C17 H18 H19 H20 C21 C22 H23 C24 
C25 H26 C27 C28 H29 C30 C31 H32 C33 H34 H35 H36 C1  C2  C3  C4  C5  H6  C7  C8  
C9  C10 C11 H12 H13 C14 H15 C16 C17 H18 H19 H20 C21 C22 H23 C24 C25 H26 C27 C28 
H29 C30 C31 H32 C33 H34 H35 H36 C1  C2  C3  C4  C5  H6  C7  C8  C9  C10 C11 H12 
H13 C14 H15 C16 C17 H18 H19 H20 C21 C22 H23 C24 C25 H26 C27 C28 H29 C30 C31 H32 
C33 H34 H35 H36 C1  C2  C3  C4  C5  H6  C7  C8  C9  C10 C11 H12 H13 C14 H15 C16 
C17 H18 H19 H20 C21 C22 H23 C24 C25 H26 C27 C28 H29 C30 C31 H32 C33 H34 H35 H36 
%FLAG CHARGE
%FORMAT(5E16.8)
 -3.46223700E-01 -2.15023140E+00 -6.56002800E-01 -3.28001400E-01 -2.31423210E+00
  2.40534360E+00 -2.13200910E+00 -2.11378680E+00 -3.09779100E-01 -2.15023140E+00
 -2.29600980E+00  2.42356590E+00  2.42356590E+00 -2.13200910E+00  2.44178820E+00
 -3.09779100E-01 -2.15023140E+00  2.44178820E+00  2.42356590E+00  2.42356590E+00
 -3.28001400E-01 -2.13200910E+00  2.44178820E+00 -3.46223700E-01 -2.11378680E+00
  2.42356590E+00 -6.56002800E-01 -2.15023140E+00  2.44178820E+00 -2.13200910E+00
 -2.31423210E+00  2.40534360E+00 -2.29600980E+00  2.42356590E+00  2.42356590E+00
  2.42356590E+00 -3.46223700E-01 -2.15023140E+00 -6.56002800E-01 -3.28001400E-01
 -2.31423210E+00  2.40534360E+00 -2.13200910E+00 -2.11378680E+00 -3.09779100E-01
 -2.15023140E+00 -2.29600980E+00  2.42356590E+00  2.42356590E+00 -2.13200910E+00
  2.44178820E+00 -3.09779100E-01 -2.15023140E+00  2.44178820E+00  2.42356590E+00
  2.42356590E+00 -3.28001400E-01 -2.13200910E+00  2.44178820E+00 -3.46223700E-01
 -2.11378680E+00  2.42356590E+00 -6.56002800E-01 -2.15023140E+00  2.44178820E+00
 -2.13200910E+00 -2.31423210E+00  2.40534360E+00 -2.29600980E+00  2.42356590E+00
  2.42356590E+00  2.42356590E+00 -3.46223700E-01 -2.15023140E+00 -6.56002800E-01
 -3.28001400E-01 -2.31423210E+00  2.40534360E+00 -2.13200910E+00 -2.11378680E+00
 -3.09779100E-01 -2.15023140E+00 -2.29600980E+00  2.42356590E+00  2.42356590E+00
 -2.13200910E+00  2.44178820E+00 -3.09779100E-01 -2.15023140E+00  2.44178820E+00
  2.42356590E+00  2.42356590E+00 -3.28001400E-01 -2.13200910E+00  2.44178820E+00
 -3.46223700E-01 -2.11378680E+00  2.42356590E+00 -6.56002800E-01 -2.15023140E+00
  2.44178820E+00 -2.13200910E+00 -2.31423210E+00  2.40534360E+00 -2.29600980E+00
  2.42356590E+00  2.42356590E+00  2.42356590E+00 -3.46223700E-01 -2.15023140E+00
 -6.56002800E-01 -3.28001400E-01 -2.31423210E+00  2.40534360E+00 -2.13200910E+00
 -2.11378680E+00 -3.09779100E-01 -2.15023140E+00 -2.29600980E+00  2.42356590E+00
  2.42356590E+00 -2.13200910E+00  2.44178820E+00 -3.09779100E-01 -2.15023140E+00
  2.44178820E+00  2.42356590E+00  2.42356590E+00 -3.28001400E-01 -2.13200910E+00
  2.44178820E+00 -3.46223700E-01 -2.11378680E+00  2.42356590E+00 -6.56002800E-01
 -2.15023140E+00  2.44178820E+00 -2.13200910E+00 -2.31423210E+00  2.40534360E+00
 -2.29600980E+00  2.42356590E+00  2.42356590E+00  2.42356590E+00 -3.46223700E-01
 -2.15023140E+00 -6.56002800E-01 -3.28001400E-01 -2.31423210E+00  2.40534360E+00
 -2.13200910E+00 -2.11378680E+00 -3.09779100E-01 -2.15023140E+00 -2.29600980E+00
  2.42356590E+00  2.42356590E+00 -2.13200910E+00  2.44178820E+00 -3.09779100E-01
 -2.15023140E+00  2.44178820E+00  2.42356590E+00  2.42356590E+00 -3.28001400E-01
 -2.13200910E+00  2.44178820E+00 -3.46223700E-01 -2.11378680E+00  2.42356590E+00
 -6.56002800E-01 -2.15023140E+00  2.44178820E+00 -2.13200910E+00 -2.31423210E+00
  2.40534360E+00 -2.29600980E+00  2.42356590E+00  2.42356590E+00  2.42356590E+00
 -3.46223700E-01 -2.15023140E+00 -6.56002800E-01 -3.28001400E-01 -2.31423210E+00
  2.40534360E+00 -2.13200910E+00 -2.11378680E+00 -3.09779100E-01 -2.15023140E+00
 -2.29600980E+00  2.42356590E+00  2.42356590E+00 -2.13200910E+00  2.44178820E+00
 -3.09779100E-01 -2.15023140E+00  2.44178820E+00  2.42356590E+00  2.42356590E+00
 -3.28001400E-01 -2.13200910E+00  2.44178820E+00 -3.46223700E-01 -2.11378680E+00
  2.42356590E+00 -6.56002800E-01 -2.15023140E+00  2.44178820E+00 -2.13200910E+00
 -2.31423210E+00  2.40534360E+00 -2.29600980E+00  2.42356590E+00  2.42356590E+00
  2.42356590E+00 -3.46223700E-01 -2.15023140E+00 -6.56002800E-01 -3.28001400E-01
 -2.31423210E+00  2.40534360E+00 -2.13200910E+00 -2.11378680E+00 -3.09779100E-01
 -2.15023140E+00 -2.29600980E+00  2.42356590E+00  2.42356590E+00 -2.13200910E+00
  2.44178820E+00 -3.09779100E-01 -2.15023140E+00  2.44178820E+00  2.42356590E+00
  2.42356590E+00 -3.28001400E-01 -2.13200910E+00  2.44178820E+00 -3.46223700E-01
 -2.11378680E+00  2.42356590E+00 -6.56002800E-01 -2.15023140E+00  2.44178820E+00
 -2.13200910E+00 -2.31423210E+00  2.40534360E+00 -2.29600980E+00  2.42356590E+00
  2.42356590E+00  2.42356590E+00 -3.46223700E-01 -2.15023140E+00 -6.56002800E-01
 -3.28001400E-01 -2.31423210E+00  2.40534360E+00 -2.13200910E+00 -2.11378680E+00
 -3.09779100E-01 -2.15023140E+00 -2.29600980E+00  2.42356590E+00  2.42356590E+00
 -2.13200910E+00  2.44178820E+00 -3.09779100E-01 -2.15023140E+00  2.44178820E+00
  2.42356590E+00  2.42356590E+00 -3.28001400E-01 -2.13200910E+00  2.44178820E+00
 -3.46223700E-01 -2.11378680E+00  2.42356590E+00 -6.56002800E-01 -2.15023140E+00
  2.44178820E+00 -2.13200910E+00 -2.31423210E+00  2.40534360E+00 -2.29600980E+00
  2.42356590E+00  2.42356590E+00  2.42356590E+00 -3.46223700E-01 -2.15023140E+00
 -6.56002800E-01 -3.28001400E-01 -2.31423210E+00  2.40534360E+00 -2.13200910E+00
 -2.11378680E+00 -3.09779100E-01 -2.15023140E+00 -2.29600980E+00  2.42356590E+00
  2.42356590E+00 -2.13200910E+00  2.44178820E+00 -3.09779100E-01 -2.15023140E+00
  2.44178820E+00  2.42356590E+00  2.42356590E+00 -3.28001400E-01 -2.13200910E+00
  2.44178820E+00 -3.46223700E-01 -2.11378680E+00  2.42356590E+00 -6.56002800E-01
 -2.15023140E+00  2.44178820E+00 -2.13200910E+00 -2.31423210E+00  2.40534360E+00
 -2.29600980E+00  2.42356590E+00  2.42356590E+00  2.42356590E+00 -3.46223700E-01
 -2.15023140E+00 -6.56002800E-01 -3.28001400E-01 -2.31423210E+00  2.40534360E+00
 -2.13200910E+00 -2.11378680E+00 -3.09779100E-01 -2.15023140E+00 -2.29600980E+00
  2.42356590E+00  2.42356590E+00 -2.13200910E+00  2.44178820E+00 -3.09779100E-01
 -2.15023140E+00  2.44178820E+00  2.42356590E+00  2.42356590E+00 -3.28001400E-01
 -2.13200910E+00  2.44178820E+00 -3.46223700E-01 -2.11378680E+00  2.42356590E+00
 -6.56002800E-01 -2.15023140E+00  2.44178820E+00 -2.13200910E+00 -2.31423210E+00
  2.40534360E+00 -2.29600980E+00  2.42356590E+00  2.42356590E+00  2.42356590E+00
 -3.46223700E-01 -2.15023140E+00 -6.56002800E-01 -3.28001400E-01 -2.31423210E+00
  2.40534360E+00 -2.13200910E+00 -2.11378680E+00 -3.09779100E-01 -2.15023140E+00
 -2.29600980E+00  2.42356590E+00  2.42356590E+00 -2.13200910E+00  2.44178820E+00
 -3.09779100E-01 -2.15023140E+00  2.44178820E+00  2.42356590E+00  2.42356590E+00
 -3.28001400E-01 -2.13200910E+00  2.44178820E+00 -3.46223700E-01 -2.11378680E+00
  2.42356590E+00 -6.56002800E-01 -2.15023140E+00  2.44178820E+00 -2.13200910E+00
 -2.31423210E+00  2.40534360E+00 -2.29600980E+00  2.42356590E+00  2.42356590E+00
  2.42356590E+00 -3.46223700E-01 -2.15023140E+00 -6.56002800E-01 -3.28001400E-01
 -2.31423210E+00  2.40534360E+00 -2.13200910E+00 -2.11378680E+00 -3.09779100E-01
 -2.15023140E+00 -2.29600980E+00  2.42356590E+00  2.42356590E+00 -2.13200910E+00
  2.44178820E+00 -3.09779100E-01 -2.15023140E+00  2.44178820E+00  2.42356590E+00
  2.42356590E+00 -3.28001400E-01 -2.13200910E+00  2.44178820E+00 -3.46223700E-01
 -2.11378680E+00  2.42356590E+00 -6.56002800E-01 -2.15023140E+00  2.44178820E+00
 -2.13200910E+00 -2.31423210E+00  2.40534360E+00 -2.29600980E+00  2.42356590E+00
  2.42356590E+00  2.42356590E+00 -3.46223700E-01 -2.15023140E+00 -6.56002800E-01
 -3.28001400E-01 -2.31423210E+00  2.40534360E+00 -2.13200910E+00 -2.11378680E+00
 -3.09779100E-01 -2.15023140E+00 -2.29600980E+00  2.42356590E+00  2.42356590E+00
 -2.13200910E+00  2.44178820E+00 -3.09779100E-01 -2.15023140E+00  2.44178820E+00
  2.42356590E+00  2.42356590E+00 -3.28001400E-01 -2.13200910E+00  2.44178820E+00
 -3.46223700E-01 -2.11378680E+00  2.42356590E+00 -6.56002800E-01 -2.15023140E+00
  2.44178820E+00 -2.13200910E+00 -2.31423210E+00  2.40534360E+00 -2.29600980E+00
  2.42356590E+00  2.42356590E+00  2.42356590E+00 -3.46223700E-01 -2.15023140E+00
 -6.56002800E-01 -3.28001400E-01 -2.31423210E+00  2.40534360E+00 -2.13200910E+00
 -2.11378680E+00 -3.09779100E-01 -2.15023140E+00 -2.29600980E+00  2.42356590E+00
  2.42356590E+00 -2.13200910E+00  2.44178820E+00 -3.09779100E-01 -2.15023140E+00
  2.44178820E+00  2.42356590E+00  2.42356590E+00 -3.28001400E-01 -2.13200910E+00
  2.44178820E+00 -3.46223700E-01 -2.11378680E+00  2.42356590E+00 -6.56002800E-01
 -2.15023140E+00  2.44178820E+00 -2.13200910E+00 -2.31423210E+00  2.40534360E+00
 -2.29600980E+00  2.42356590E+00  2.42356590E+00  2.42356590E+00 -3.46223700E-01
 -2.15023140E+00 -6.56002800E-01 -3.28001400E-01 -2.31423210E+00  2.40534360E+00
 -2.13200910E+00 -2.11378680E+00 -3.09779100E-01 -2.15023140E+00 -2.29600980E+00
  2.42356590E+00  2.42356590E+00 -2.13200910E+00  2.44178820E+00 -3.09779100E-01
 -2.15023140E+00  2.44178820E+00  2.42356590E+00  2.42356590E+00 -3.28001400E-01
 -2.13200910E+00  2.44178820E+00 -3.46223700E-01 -2.11378680E+00  2.42356590E+00
 -6.56002800E-01 -2.15023140E+00  2.44178820E+00 -2.13200910E+00 -2.31423210E+00
  2.40534360E+00 -2.29600980E+00  2.42356590E+00  2.42356590E+00  2.42356590E+00
 -3.46223700E-01 -2.15023140E+00 -6.56002800E-01 -3.28001400E-01 -2.31423210E+00
  2.40534360E+00 -2.13200910E+00 -2.11378680E+00 -3.09779100E-01 -2.15023140E+00
 -2.29600980E+00  2.42356590E+00  2.42356590E+00 -2.13200910E+00  2.44178820E+00
 -3.09779100E-01 -2.15023140E+00  2.44178820E+00  2.42356590E+00  2.42356590E+00
 -3.28001400E-01 -2.13200910E+00  2.44178820E+00 -3.46223700E-01 -2.11378680E+00
  2.42356590E+00 -6.56002800E-01 -2.15023140E+00  2.44178820E+00 -2.13200910E+00
 -2.31423210E+00  2.40534360E+00 -2.29600980E+00  2.42356590E+00  2.42356590E+00
  2.42356590E+00 -3.46223700E-01 -2.15023140E+00 -6.56002800E-01 -3.28001400E-01
 -2.31423210E+00  2.40534360E+00 -2.13200910E+00 -2.11378680E+00 -3.09779100E-01
 -2.15023140E+00 -2.29600980E+00  2.42356590E+00  2.42356590E+00 -2.13200910E+00
  2.44178820E+00 -3.09779100E-01 -2.15023140E+00  2.44178820E+00  2.42356590E+00
  2.42356590E+00 -3.28001400E-01 -2.13200910E+00  2.44178820E+00 -3.46223700E-01
 -2.11378680E+00  2.42356590E+00 -6.56002800E-01 -2.15023140E+00  2.44178820E+00
 -2.13200910E+00 -2.31423210E+00  2.40534360E+00 -2.29600980E+00  2.42356590E+00
  2.42356590E+00  2.42356590E+00 -3.46223700E-01 -2.15023140E+00 -6.56002800E-01
 -3.28001400E-01 -2.31423210E+00  2.40534360E+00 -2.13200910E+00 -2.11378680E+00
 -3.09779100E-01 -2.15023140E+00 -2.29600980E+00  2.42356590E+00  2.42356590E+00
 -2.13200910E+00  2.44178820E+00 -3.09779100E-01 -2.15023140E+00  2.44178820E+00
  2.42356590E+00  2.42356590E+00 -3.28001400E-01 -2.13200910E+00  2.44178820E+00
 -3.46223700E-01 -2.11378680E+00  2.42356590E+00 -6.56002800E-01 -2.15023140E+00
  2.44178820E+00 -2.13200910E+00 -2.31423210E+00  2.40534360E+00 -2.29600980E+00
  2.42356590E+00  2.42356590E+00  2.42356590E+00 -3.46223700E-01 -2.15023140E+00
 -6.56002800E-01 -3.28001400E-01 -2.31423210E+00  2.40534360E+00 -2.13200910E+00
 -2.11378680E+00 -3.09779100E-01 -2.15023140E+00 -2.29600980E+00  2.42356590E+00
  2.42356590E+00 -2.13200910E+00  2.44178820E+00 -3.09779100E-01 -2.15023140E+00
  2.44178820E+00  2.42356590E+00  2.42356590E+00 -3.28001400E-01 -2.13200910E+00
  2.44178820E+00 -3.46223700E-01 -2.11378680E+00  2.42356590E+00 -6.56002800E-01
 -2.15023140E+00  2.44178820E+00 -2.13200910E+00 -2.31423210E+00  2.40534360E+00
 -2.29600980E+00  2.42356590E+00  2.42356590E+00  2.42356590E+00 -3.46223700E-01
 -2.15023140E+00 -6.56002800E-01 -3.28001400E-01 -2.31423210E+00  2.40534360E+00
 -2.13200910E+00 -2.11378680E+00 -3.09779100E-01 -2.15023140E+00 -2.29600980E+00
  2.42356590E+00  2.42356590E+00 -2.13200910E+00  2.44178820E+00 -3.09779100E-01
 -2.15023140E+00  2.44178820E+00  2.42356590E+00  2.42356590E+00 -3.28001400E-01
 -2.13200910E+00  2.44178820E+00 -3.46223700E-01 -2.11378680E+00  2.42356590E+00
 -6.56002800E-01 -2.15023140E+00  2.44178820E+00 -2.13200910E+00 -2.31423210E+00
  2.40534360E+00 -2.29600980E+00  2.42356590E+00  2.42356590E+00  2.42356590E+00
 -3.46223700E-01 -2.15023140E+00 -6.56002800E-01 -3.28001400E-01 -2.31423210E+00
  2.40534360E+00 -2.13200910E+00 -2.11378680E+00 -3.09779100E-01 -2.15023140E+00
 -2.29600980E+00  2.42356590E+00  2.42356590E+00 -2.13200910E+00  2.44178820E+00
 -3.09779100E-01 -2.15023140E+00  2.44178820E+00  2.42356590E+00  2.42356590E+00
 -3.28001400E-01 -2.13200910E+00  2.44178820E+00 -3.46223700E-01 -2.11378680E+00
  2.42356590E+00 -6.56002800E-01 -2.15023140E+00  2.44178820E+00 -2.13200910E+00
 -2.31423210E+00  2.40534360E+00 -2.29600980E+00  2.42356590E+00  2.42356590E+00
  2.42356590E+00 -3.46223700E-01 -2.15023140E+00 -6.56002800E-01 -3.28001400E-01
 -2.31423210E+00  2.40534360E+00 -2.13200910E+00 -2.11378680E+00 -3.09779100E-01
 -2.15023140E+00 -2.29600980E+00  2.42356590E+00  2.42356590E+00 -2.13200910E+00
  2.44178820E+00 -3.09779100E-01 -2.15023140E+00  2.44178820E+00  2.42356590E+00
  2.42356590E+00 -3.28001400E-01 -2.13200910E+00  2.44178820E+00 -3.46223700E-01
 -2.11378680E+00  2.42356590E+00 -6.56002800E-01 -2.15023140E+00  2.44178820E+00
 -2.13200910E+00 -2.31423210E+00  2.40534360E+00 -2.29600980E+00  2.42356590E+00
  2.42356590E+00  2.42356590E+00 -3.46223700E-01 -2.15023140E+00 -6.56002800E-01
 -3.28001400E-01 -2.31423210E+00  2.40534360E+00 -2.13200910E+00 -2.11378680E+00
 -3.09779100E-01 -2.15023140E+00 -2.29600980E+00  2.42356590E+00  2.42356590E+00
 -2.13200910E+00  2.44178820E+00 -3.09779100E-01 -2.15023140E+00  2.44178820E+00
  2.42356590E+00  2.42356590E+00 -3.28001400E-01 -2.13200910E+00  2.44178820E+00
 -3.46223700E-01 -2.11378680E+00  2.42356590E+00 -6.56002800E-01 -2.15023140E+00
  2.44178820E+00 -2.13200910E+00 -2.31423210E+00  2.40534360E+00 -2.29600980E+00
  2.42356590E+00  2.42356590E+00  2.42356590E+00 -3.46223700E-01 -2.15023140E+00
 -6.56002800E-01 -3.28001400E-01 -2.31423210E+00  2.40534360E+00 -2.13200910E+00
 -2.11378680E+00 -3.09779100E-01 -2.15023140E+00 -2.29600980E+00  2.42356590E+00
  2.42356590E+00 -2.13200910E+00  2.44178820E+00 -3.09779100E-01 -2.15023140E+00
  2.44178820E+00  2.42356590E+00  2.42356590E+00 -3.28001400E-01 -2.13200910E+00
  2.44178820E+00 -3.46223700E-01 -2.11378680E+00  2.42356590E+00 -6.56002800E-01
 -2.15023140E+00  2.44178820E+00 -2.13200910E+00 -2.31423210E+00  2.40534360E+00
 -2.29600980E+00  2.42356590E+00  2.42356590E+00  2.42356590E+00 -3.46223700E-01
 -2.15023140E+00 -6.56002800E-01 -3.28001400E-01 -2.31423210E+00  2.40534360E+00
 -2.13200910E+00 -2.11378680E+00 -3.09779100E-01 -2.15023140E+00 -2.29600980E+00
  2.42356590E+00  2.42356590E+00 -2.13200910E+00  2.44178820E+00 -3.09779100E-01
 -2.15023140E+00  2.44178820E+00  2.42356590E+00  2.42356590E+00 -3.28001400E-01
 -2.13200910E+00  2.44178820E+00 -3.46223700E-01 -2.11378680E+00  2.42356590E+00
 -6.56002800E-01 -2.15023140E+00  2.44178820E+00 -2.13200910E+00 -2.31423210E+00
  2.40534360E+00 -2.29600980E+00  2.42356590E+00  2.42356590E+00  2.42356590E+00
 -3.46223700E-01 -2.15023140E+00 -6.56002800E-01 -3.28001400E-01 -2.31423210E+00
  2.40534360E+00 -2.13200910E+00 -2.11378680E+00 -3.09779100E-01 -2.15023140E+00
 -2.29600980E+00  2.42356590E+00  2.42356590E+00 -2.13200910E+00  2.44178820E+00
 -3.09779100E-01 -2.15023140E+00  2.44178820E+00  2.42356590E+00  2.42356590E+00
 -3.28001400E-01 -2.13200910E+00  2.44178820E+00 -3.46223700E-01 -2.11378680E+00
  2.42356590E+00 -6.56002800E-01 -2.15023140E+00  2.44178820E+00 -2.13200910E+00
 -2.31423210E+00  2.40534360E+00 -2.29600980E+00  2.42356590E+00  2.42356590E+00
  2.42356590E+00 -3.46223700E-01 -2.15023140E+00 -6.56002800E-01 -3.28001400E-01
 -2.31423210E+00  2.40534360E+00 -2.13200910E+00 -2.11378680E+00 -3.09779100E-01
 -2.15023140E+00 -2.29600980E+00  2.42356590E+00  2.42356590E+00 -2.13200910E+00
  2.44178820E+00 -3.09779100E-01 -2.15023140E+00  2.44178820E+00  2.42356590E+00
  2.42356590E+00 -3.28001400E-01 -2.13200910E+00  2.44178820E+00 -3.46223700E-01
 -2.11378680E+00  2.42356590E+00 -6.56002800E-01 -2.15023140E+00  2.44178820E+00
 -2.13200910E+00 -2.31423210E+00  2.40534360E+00 -2.29600980E+00  2.42356590E+00
  2.42356590E+00  2.42356590E+00 -3.46223700E-01 -2.15023140E+00 -6.56002800E-01
 -3.28001400E-01 -2.31423210E+00  2.40534360E+00 -2.13200910E+00 -2.11378680E+00
 -3.09779100E-01 -2.15023140E+00 -2.29600980E+00  2.42356590E+00  2.42356590E+00
 -2.13200910E+00  2.44178820E+00 -3.09779100E-01 -2.15023140E+00  2.44178820E+00
  2.42356590E+00  2.42356590E+00 -3.28001400E-01 -2.13200910E+00  2.44178820E+00
 -3.46223700E-01 -2.11378680E+00  2.42356590E+00 -6.56002800E-01 -2.15023140E+00
  2.44178820E+00 -2.13200910E+00 -2.31423210E+00  2.40534360E+00 -2.29600980E+00
  2.42356590E+00  2.42356590E+00  2.42356590E+00 -3.46223700E-01 -2.15023140E+00
 -6.56002800E-01 -3.28001400E-01 -2.31423210E+00  2.40534360E+00 -2.13200910E+00
 -2.11378680E+00 -3.09779100E-01 -2.15023140E+00 -2.29600980E+00  2.42356590E+00
  2.42356590E+00 -2.13200910E+00  2.44178820E+00 -3.09779100E-01 -2.15023140E+00
  2.44178820E+00  2.42356590E+00  2.42356590E+00 -3.28001400E-01 -2.13200910E+00
  2.44178820E+00 -3.46223700E-01 -2.11378680E+00  2.42356590E+00 -6.56002800E-01
 -2.15023140E+00  2.44178820E+00 -2.13200910E+00 -2.31423210E+00  2.40534360E+00
 -2.29600980E+00  2.42356590E+00  2.42356590E+00  2.42356590E+00 -3.46223700E-01
 -2.15023140E+00 -6.56002800E-01 -3.28001400E-01 -2.31423210E+00  2.40534360E+00
 -2.13200910E+00 -2.11378680E+00 -3.09779100E-01 -2.15023140E+00 -2.29600980E+00
  2.42356590E+00  2.42356590E+00 -2.13200910E+00  2.44178820E+00 -3.09779100E-01
 -2.15023140E+00  2.44178820E+00  2.42356590E+00  2.42356590E+00 -3.28001400E-01
 -2.13200910E+00  2.44178820E+00 -3.46223700E-01 -2.11378680E+00  2.42356590E+00
 -6.56002800E-01 -2.15023140E+00  2.44178820E+00 -2.13200910E+00 -2.31423210E+00
  2.40534360E+00 -2.29600980E+00  2.42356590E+00  2.42356590E+00  2.42356590E+00
 -3.46223700E-01 -2.15023140E+00 -6.56002800E-01 -3.28001400E-01 -2.31423210E+00
  2.40534360E+00 -2.13200910E+00 -2.11378680E+00 -3.09779100E-01 -2.15023140E+00
 -2.29600980E+00  2.42356590E+00  2.42356590E+00 -2.13200910E+00  2.44178820E+00
 -3.09779100E-01 -2.15023140E+00  2.44178820E+00  2.42356590E+00  2.42356590E+00
 -3.28001400E-01 -2.13200910E+00  2.44178820E+00 -3.46223700E-01 -2.11378680E+00
  2.42356590E+00 -6.56002800E-01 -2.15023140E+00  2.44178820E+00 -2.13200910E+00
 -2.31423210E+00  2.40534360E+00 -2.29600980E+00  2.42356590E+00  2.42356590E+00
  2.42356590E+00 -3.46223700E-01 -2.15023140E+00 -6.56002800E-01 -3.28001400E-01
 -2.31423210E+00  2.40534360E+00 -2.13200910E+00 -2.11378680E+00 -3.09779100E-01
 -2.15023140E+00 -2.29600980E+00  2.42356590E+00  2.42356590E+00 -2.13200910E+00
  2.44178820E+00 -3.09779100E-01 -2.15023140E+00  2.44178820E+00  2.42356590E+00
  2.42356590E+00 -3.28001400E-01 -2.13200910E+00  2.44178820E+00 -3.46223700E-01
 -2.11378680E+00  2.42356590E+00 -6.56002800E-01 -2.15023140E+00  2.44178820E+00
 -2.13200910E+00 -2.31423210E+00  2.40534360E+00 -2.29600980E+00  2.42356590E+00
  2.42356590E+00  2.42356590E+00 -3.46223700E-01 -2.15023140E+00 -6.56002800E-01
 -3.28001400E-01 -2.31423210E+00  2.40534360E+00 -2.13200910E+00 -2.11378680E+00
 -3.09779100E-01 -2.15023140E+00 -2.29600980E+00  2.42356590E+00  2.42356590E+00
 -2.13200910E+00  2.44178820E+00 -3.09779100E-01 -2.15023140E+00  2.44178820E+00
  2.42356590E+00  2.42356590E+00 -3.28001400E-01 -2.13200910E+00  2.44178820E+00
 -3.46223700E-01 -2.11378680E+00  2.42356590E+00 -6.56002800E-01 -2.15023140E+00
  2.44178820E+00 -2.13200910E+00 -2.31423210E+00  2.40534360E+00 -2.29600980E+00
  2.42356590E+00  2.42356590E+00  2.42356590E+00 -3.46223700E-01 -2.15023140E+00
 -6.56002800E-01 -3.28001400E-01 -2.31423210E+00  2.40534360E+00 -2.13200910E+00
 -2.11378680E+00 -3.09779100E-01 -2.15023140E+00 -2.29600980E+00  2.42356590E+00
  2.42356590E+00 -2.13200910E+00  2.44178820E+00 -3.09779100E-01 -2.15023140E+00
  2.44178820E+00  2.42356590E+00  2.42356590E+00 -3.28001400E-01 -2.13200910E+00
  2.44178820E+00 -3.46223700E-01 -2.11378680E+00  2.42356590E+00 -6.56002800E-01
 -2.15023140E+00  2.44178820E+00 -2.13200910E+00 -2.31423210E+00  2.40534360E+00
 -2.29600980E+00  2.42356590E+00  2.42356590E+00  2.42356590E+00 -3.46223700E-01
 -2.15023140E+00 -6.56002800E-01 -3.28001400E-01 -2.31423210E+00  2.40534360E+00
 -2.13200910E+00 -2.11378680E+00 -3.09779100E-01 -2.15023140E+00 -2.29600980E+00
  2.42356590E+00  2.42356590E+00 -2.13200910E+00  2.44178820E+00 -3.09779100E-01
 -2.15023140E+00  2.44178820E+00  2.42356590E+00  2.42356590E+00 -3.28001400E-01
 -2.13200910E+00  2.44178820E+00 -3.46223700E-01 -2.11378680E+00  2.42356590E+00
 -6.56002800E-01 -2.15023140E+00  2.44178820E+00 -2.13200910E+00 -2.31423210E+00
  2.40534360E+00 -2.29600980E+00  2.42356590E+00  2.42356590E+00  2.42356590E+00
 -3.46223700E-01 -2.15023140E+00 -6.56002800E-01 -3.28001400E-01 -2.31423210E+00
  2.40534360E+00 -2.13200910E+00 -2.11378680E+00 -3.09779100E-01 -2.15023140E+00
 -2.29600980E+00  2.42356590E+00  2.42356590E+00 -2.13200910E+00  2.44178820E+00
 -3.09779100E-01 -2.15023140E+00  2.44178820E+00  2.42356590E+00  2.42356590E+00
 -3.28001400E-01 -2.13200910E+00  2.44178820E+00 -3.46223700E-01 -2.11378680E+00
  2.42356590E+00 -6.56002800E-01 -2.15023140E+00  2.44178820E+00 -2.13200910E+00
 -2.31423210E+00  2.40534360E+00 -2.29600980E+00  2.42356590E+00  2.42356590E+00
  2.42356590E+00 -3.46223700E-01 -2.15023140E+00 -6.56002800E-01 -3.28001400E-01
 -2.31423210E+00  2.40534360E+00 -2.13200910E+00 -2.11378680E+00 -3.09779100E-01
 -2.15023140E+00 -2.29600980E+00  2.42356590E+00  2.42356590E+00 -2.13200910E+00
  2.44178820E+00 -3.09779100E-01 -2.15023140E+00  2.44178820E+00  2.42356590E+00
  2.42356590E+00 -3.28001400E-01 -2.13200910E+00  2.44178820E+00 -3.46223700E-01
 -2.11378680E+00  2.42356590E+00 -6.56002800E-01 -2.15023140E+00  2.44178820E+00
 -2.13200910E+00 -2.31423210E+00  2.40534360E+00 -2.29600980E+00  2.42356590E+00
  2.42356590E+00  2.42356590E+00 -3.46223700E-01 -2.15023140E+00 -6.56002800E-01
 -3.28001400E-01 -2.31423210E+00  2.40534360E+00 -2.13200910E+00 -2.11378680E+00
 -3.09779100E-01 -2.15023140E+00 -2.29600980E+00  2.42356590E+00  2.42356590E+00
 -2.13200910E+00  2.44178820E+00 -3.09779100E-01 -2.15023140E+00  2.44178820E+00
  2.42356590E+00  2.42356590E+00 -3.28001400E-01 -2.13200910E+00  2.44178820E+00
 -3.46223700E-01 -2.11378680E+00  2.42356590E+00 -6.56002800E-01 -2.15023140E+00
  2.44178820E+00 -2.13200910E+00 -2.31423210E+00  2.40534360E+00 -2.29600980E+00
  2.42356590E+00  2.42356590E+00  2.42356590E+00 -3.46223700E-01 -2.15023140E+00
 -6.56002800E-01 -3.28001400E-01 -2.31423210E+00  2.40534360E+00 -2.13200910E+00
 -2.11378680E+00 -3.09779100E-01 -2.15023140E+00 -2.29600980E+00  2.42356590E+00
  2.42356590E+00 -2.13200910E+00  2.44178820E+00 -3.09779100E-01 -2.15023140E+00
  2.44178820E+00  2.42356590E+00  2.42356590E+00 -3.28001400E-01 -2.13200910E+00
  2.44178820E+00 -3.46223700E-01 -2.11378680E+00  2.42356590E+00 -6.56002800E-01
 -2.15023140E+00  2.44178820E+00 -2.13200910E+00 -2.31423210E+00  2.40534360E+00
 -2.29600980E+00  2.42356590E+00  2.42356590E+00  2.42356590E+00 -3.46223700E-01
 -2.15023140E+00 -6.56002800E-01 -3.28001400E-01 -2.31423210E+00  2.40534360E+00
 -2.13200910E+00 -2.11378680E+00 -3.09779100E-01 -2.15023140E+00 -2.29600980E+00
  2.42356590E+00  2.42356590E+00 -2.13200910E+00  2.44178820E+00 -3.09779100E-01
 -2.15023140E+00  2.44178820E+00  2.42356590E+00  2.42356590E+00 -3.28001400E-01
 -2.13200910E+00  2.44178820E+00 -3.46223700E-01 -2.11378680E+00  2.42356590E+00
 -6.56002800E-01 -2.15023140E+00  2.44178820E+00 -2.13200910E+00 -2.31423210E+00
  2.40534360E+00 -2.29600980E+00  2.42356590E+00  2.42356590E+00  2.42356590E+00
 -3.46223700E-01 -2.15023140E+00 -6.56002800E-01 -3.28001400E-01 -2.31423210E+00
  2.40534360E+00 -2.13200910E+00 -2.11378680E+00 -3.09779100E-01 -2.15023140E+00
 -2.29600980E+00  2.42356590E+00  2.42356590E+00 -2.13200910E+00  2.44178820E+00
 -3.09779100E-01 -2.15023140E+00  2.44178820E+00  2.42356590E+00  2.42356590E+00
 -3.28001400E-01 -2.13200910E+00  2.44178820E+00 -3.46223700E-01 -2.11378680E+00
  2.42356590E+00 -6.56002800E-01 -2.15023140E+00  2.44178820E+00 -2.13200910E+00
 -2.31423210E+00  2.40534360E+00 -2.29600980E+00  2.42356590E+00  2.42356590E+00
  2.42356590E+00 -3.46223700E-01 -2.15023140E+00 -6.56002800E-01 -3.28001400E-01
 -2.31423210E+00  2.40534360E+00 -2.13200910E+00 -2.11378680E+00 -3.09779100E-01
 -2.15023140E+00 -2.29600980E+00  2.42356590E+00  2.42356590E+00 -2.13200910E+00
  2.44178820E+00 -3.09779100E-01 -2.15023140E+00  2.44178820E+00  2.42356590E+00
  2.42356590E+00 -3.28001400E-01 -2.13200910E+00  2.44178820E+00 -3.46223700E-01
 -2.11378680E+00  2.42356590E+00 -6.56002800E-01 -2.15023140E+00  2.44178820E+00
 -2.13200910E+00 -2.31423210E+00  2.40534360E+00 -2.29600980E+00  2.42356590E+00
  2.42356590E+00  2.42356590E+00 -3.46223700E-01 -2.15023140E+00 -6.56002800E-01
 -3.28001400E-01 -2.31423210E+00  2.40534360E+00 -2.13200910E+00 -2.11378680E+00
 -3.09779100E-01 -2.15023140E+00 -2.29600980E+00  2.42356590E+00  2.42356590E+00
 -2.13200910E+00  2.44178820E+00 -3.09779100E-01 -2.15023140E+00  2.44178820E+00
  2.42356590E+00  2.42356590E+00 -3.28001400E-01 -2.13200910E+00  2.44178820E+00
 -3.46223700E-01 -2.11378680E+00  2.42356590E+00 -6.56002800E-01 -2.15023140E+00
  2.44178820E+00 -2.13200910E+00 -2.31423210E+00  2.40534360E+00 -2.29600980E+00
  2.42356590E+00  2.42356590E+00  2.42356590E+00 -3.46223700E-01 -2.15023140E+00
 -6.56002800E-01 -3.28001400E-01 -2.31423210E+00  2.40534360E+00 -2.13200910E+00
 -2.11378680E+00 -3.09779100E-01 -2.15023140E+00 -2.29600980E+00  2.42356590E+00
  2.42356590E+00 -2.13200910E+00  2.44178820E+00 -3.09779100E-01 -2.15023140E+00
  2.44178820E+00  2.42356590E+00  2.42356590E+00 -3.28001400E-01 -2.13200910E+00
  2.44178820E+00 -3.46223700E-01 -2.11378680E+00  2.42356590E+00 -6.56002800E-01
 -2.15023140E+00  2.44178820E+00 -2.13200910E+00 -2.31423210E+00  2.40534360E+00
 -2.29600980E+00  2.42356590E+00  2.42356590E+00  2.42356590E+00 -3.46223700E-01
 -2.15023140E+00 -6.56002800E-01 -3.28001400E-01 -2.31423210E+00  2.40534360E+00
 -2.13200910E+00 -2.11378680E+00 -3.09779100E-01 -2.15023140E+00 -2.29600980E+00
  2.42356590E+00  2.42356590E+00 -2.13200910E+00  2.44178820E+00 -3.09779100E-01
 -2.15023140E+00  2.44178820E+00  2.42356590E+00  2.42356590E+00 -3.28001400E-01
 -2.13200910E+00  2.44178820E+00 -3.46223700E-01 -2.11378680E+00  2.42356590E+00
 -6.56002800E-01 -2.15023140E+00  2.44178820E+00 -2.13200910E+00 -2.31423210E+00
  2.40534360E+00 -2.29600980E+00  2.42356590E+00  2.42356590E+00  2.42356590E+00
 -3.46223700E-01 -2.15023140E+00 -6.56002800E-01 -3.28001400E-01 -2.31423210E+00
  2.40534360E+00 -2.13200910E+00 -2.11378680E+00 -3.09779100E-01 -2.15023140E+00
 -2.29600980E+00  2.42356590E+00  2.42356590E+00 -2.13200910E+00  2.44178820E+00
 -3.09779100E-01 -2.15023140E+00  2.44178820E+00  2.42356590E+00  2.42356590E+00
 -3.28001400E-01 -2.13200910E+00  2.44178820E+00 -3.46223700E-01 -2.11378680E+00
  2.42356590E+00 -6.56002800E-01 -2.15023140E+00  2.44178820E+00 -2.13200910E+00
 -2.31423210E+00  2.40534360E+00 -2.29600980E+00  2.42356590E+00  2.42356590E+00
  2.42356590E+00 -3.46223700E-01 -2.15023140E+00 -6.56002800E-01 -3.28001400E-01
 -2.31423210E+00  2.40534360E+00 -2.13200910E+00 -2.11378680E+00 -3.09779100E-01
 -2.15023140E+00 -2.29600980E+00  2.42356590E+00  2.42356590E+00 -2.13200910E+00
  2.44178820E+00 -3.09779100E-01 -2.15023140E+00  2.44178820E+00  2.42356590E+00
  2.42356590E+00 -3.28001400E-01 -2.13200910E+00  2.44178820E+00 -3.46223700E-01
 -2.11378680E+00  2.42356590E+00 -6.56002800E-01 -2.15023140E+00  2.44178820E+00
 -2.13200910E+00 -2.31423210E+00  2.40534360E+00 -2.29600980E+00  2.42356590E+00
  2.42356590E+00  2.42356590E+00 -3.46223700E-01 -2.15023140E+00 -6.56002800E-01
 -3.28001400E-01 -2.31423210E+00  2.40534360E+00 -2.13200910E+00 -2.11378680E+00
 -3.09779100E-01 -2.15023140E+00 -2.29600980E+00  2.42356590E+00  2.42356590E+00
 -2.13200910E+00  2.44178820E+00 -3.09779100E-01 -2.15023140E+00  2.44178820E+00
  2.42356590E+00  2.42356590E+00 -3.28001400E-01 -2.13200910E+00  2.44178820E+00
 -3.46223700E-01 -2.11378680E+00  2.42356590E+00 -6.56002800E-01 -2.15023140E+00
  2.44178820E+00 -2.13200910E+00 -2.31423210E+00  2.40534360E+00 -2.29600980E+00
  2.42356590E+00  2.42356590E+00  2.42356590E+00 -3.46223700E-01 -2.15023140E+00
 -6.56002800E-01 -3.28001400E-01 -2.31423210E+00  2.40534360E+00 -2.13200910E+00
 -2.11378680E+00 -3.09779100E-01 -2.15023140E+00 -2.29600980E+00  2.42356590E+00
  2.42356590E+00 -2.13200910E+00  2.44178820E+00 -3.09779100E-01 -2.15023140E+00
  2.44178820E+00  2.42356590E+00  2.42356590E+00 -3.28001400E-01 -2.13200910E+00
  2.44178820E+00 -3.46223700E-01 -2.11378680E+00  2.42356590E+00 -6.56002800E-01
 -2.15023140E+00  2.44178820E+00 -2.13200910E+00 -2.31423210E+00  2.40534360E+00
 -2.29600980E+00  2.42356590E+00  2.42356590E+00  2.42356590E+00 -3.46223700E-01
 -2.15023140E+00 -6.56002800E-01 -3.28001400E-01 -2.31423210E+00  2.40534360E+00
 -2.13200910E+00 -2.11378680E+00 -3.09779100E-01 -2.15023140E+00 -2.29600980E+00
  2.42356590E+00  2.42356590E+00 -2.13200910E+00  2.44178820E+00 -3.09779100E-01
 -2.15023140E+00  2.44178820E+00  2.42356590E+00  2.42356590E+00 -3.28001400E-01
 -2.13200910E+00  2.44178820E+00 -3.46223700E-01 -2.11378680E+00  2.42356590E+00
 -6.56002800E-01 -2.15023140E+00  2.44178820E+00 -2.13200910E+00 -2.31423210E+00
  2.40534360E+00 -2.29600980E+00  2.42356590E+00  2.42356590E+00  2.42356590E+00
 -3.46223700E-01 -2.15023140E+00 -6.56002800E-01 -3.28001400E-01 -2.31423210E+00
  2.40534360E+00 -2.13200910E+00 -2.11378680E+00 -3.09779100E-01 -2.15023140E+00
 -2.29600980E+00  2.42356590E+00  2.42356590E+00 -2.13200910E+00  2.44178820E+00
 -3.09779100E-01 -2.15023140E+00  2.44178820E+00  2.42356590E+00  2.42356590E+00
 -3.28001400E-01 -2.13200910E+00  2.44178820E+00 -3.46223700E-01 -2.11378680E+00
  2.42356590E+00 -6.56002800E-01 -2.15023140E+00  2.44178820E+00 -2.13200910E+00
 -2.31423210E+00  2.40534360E+00 -2.29600980E+00  2.42356590E+00  2.42356590E+00
  2.42356590E+00 -3.46223700E-01 -2.15023140E+00 -6.56002800E-01 -3.28001400E-01
 -2.31423210E+00  2.40534360E+00 -2.13200910E+00 -2.11378680E+00 -3.09779100E-01
 -2.15023140E+00 -2.29600980E+00  2.42356590E+00  2.42356590E+00 -2.13200910E+00
  2.44178820E+00 -3.09779100E-01 -2.15023140E+00  2.44178820E+00  2.42356590E+00
  2.42356590E+00 -3.28001400E-01 -2.13200910E+00  2.44178820E+00 -3.46223700E-01
 -2.11378680E+00  2.42356590E+00 -6.56002800E-01 -2.15023140E+00  2.44178820E+00
 -2.13200910E+00 -2.31423210E+00  2.40534360E+00 -2.29600980E+00  2.42356590E+00
  2.42356590E+00  2.42356590E+00 -3.46223700E-01 -2.15023140E+00 -6.56002800E-01
 -3.28001400E-01 -2.31423210E+00  2.40534360E+00 -2.13200910E+00 -2.11378680E+00
 -3.09779100E-01 -2.15023140E+00 -2.29600980E+00  2.42356590E+00  2.42356590E+00
 -2.13200910E+00  2.44178820E+00 -3.09779100E-01 -2.15023140E+00  2.44178820E+00
  2.42356590E+00  2.42356590E+00 -3.28001400E-01 -2.13200910E+00  2.44178820E+00
 -3.46223700E-01 -2.11378680E+00  2.42356590E+00 -6.56002800E-01 -2.15023140E+00
  2.44178820E+00 -2.13200910E+00 -2.31423210E+00  2.40534360E+00 -2.29600980E+00
  2.42356590E+00  2.42356590E+00  2.42356590E+00 -3.46223700E-01 -2.15023140E+00
 -6.56002800E-01 -3.28001400E-01 -2.31423210E+00  2.40534360E+00 -2.13200910E+00
 -2.11378680E+00 -3.09779100E-01 -2.15023140E+00 -2.29600980E+00  2.42356590E+00
  2.42356590E+00 -2.13200910E+00  2.44178820E+00 -3.09779100E-01 -2.15023140E+00
  2.44178820E+00  2.42356590E+00  2.42356590E+00 -3.28001400E-01 -2.13200910E+00
  2.44178820E+00 -3.46223700E-01 -2.11378680E+00  2.42356590E+00 -6.56002800E-01
 -2.15023140E+00  2.44178820E+00 -2.13200910E+00 -2.31423210E+00  2.40534360E+00
 -2.29600980E+00  2.42356590E+00  2.42356590E+00  2.42356590E+00 -3.46223700E-01
 -2.15023140E+00 -6.56002800E-01 -3.28001400E-01 -2.31423210E+00  2.40534360E+00
 -2.13200910E+00 -2.11378680E+00 -3.09779100E-01 -2.15023140E+00 -2.29600980E+00
  2.42356590E+00  2.42356590E+00 -2.13200910E+00  2.44178820E+00 -3.09779100E-01
 -2.15023140E+00  2.44178820E+00  2.42356590E+00  2.42356590E+00 -3.28001400E-01
 -2.13200910E+00  2.44178820E+00 -3.46223700E-01 -2.11378680E+00  2.42356590E+00
 -6.56002800E-01 -2.15023140E+00  2.44178820E+00 -2.13200910E+00 -2.31423210E+00
  2.40534360E+00 -2.29600980E+00  2.42356590E+00  2.42356590E+00  2.42356590E+00
 -3.46223700E-01 -2.15023140E+00 -6.56002800E-01 -3.28001400E-01 -2.31423210E+00
  2.40534360E+00 -2.13200910E+00 -2.11378680E+00 -3.09779100E-01 -2.15023140E+00
 -2.29600980E+00  2.42356590E+00  2.42356590E+00 -2.13200910E+00  2.44178820E+00
 -3.09779100E-01 -2.15023140E+00  2.44178820E+00  2.42356590E+00  2.42356590E+00
 -3.28001400E-01 -2.13200910E+00  2.44178820E+00 -3.46223700E-01 -2.11378680E+00
  2.42356590E+00 -6.56002800E-01 -2.15023140E+00  2.44178820E+00 -2.13200910E+00
 -2.31423210E+00  2.40534360E+00 -2.29600980E+00  2.42356590E+00  2.42356590E+00
  2.42356590E+00 -3.46223700E-01 -2.15023140E+00 -6.56002800E-01 -3.28001400E-01
 -2.31423210E+00  2.40534360E+00 -2.13200910E+00 -2.11378680E+00 -3.09779100E-01
 -2.15023140E+00 -2.29600980E+00  2.42356590E+00  2.42356590E+00 -2.13200910E+00
  2.44178820E+00 -3.09779100E-01 -2.15023140E+00  2.44178820E+00  2.42356590E+00
  2.42356590E+00 -3.28001400E-01 -2.13200910E+00  2.44178820E+00 -3.46223700E-01
 -2.11378680E+00  2.42356590E+00 -6.56002800E-01 -2.15023140E+00  2.44178820E+00
 -2.13200910E+00 -2.31423210E+00  2.40534360E+00 -2.29600980E+00  2.42356590E+00
  2.42356590E+00  2.42356590E+00 -3.46223700E-01 -2.15023140E+00 -6.56002800E-01
 -3.28001400E-01 -2.31423210E+00  2.40534360E+00 -2.13200910E+00 -2.11378680E+00
 -3.09779100E-01 -2.15023140E+00 -2.29600980E+00  2.42356590E+00  2.42356590E+00
 -2.13200910E+00  2.44178820E+00 -3.09779100E-01 -2.15023140E+00  2.44178820E+00
  2.42356590E+00  2.42356590E+00 -3.28001400E-01 -2.13200910E+00  2.44178820E+00
 -3.46223700E-01 -2.11378680E+00  2.42356590E+00 -6.56002800E-01 -2.15023140E+00
  2.44178820E+00 -2.13200910E+00 -2.31423210E+00  2.40534360E+00 -2.29600980E+00
  2.42356590E+00  2.42356590E+00  2.42356590E+00 -3.46223700E-01 -2.15023140E+00
 -6.56002800E-01 -3.28001400E-01 -2.31423210E+00  2.40534360E+00 -2.13200910E+00
 -2.11378680E+00 -3.09779100E-01 -2.15023140E+00 -2.29600980E+00  2.42356590E+00
  2.42356590E+00 -2.13200910E+00  2.44178820E+00 -3.09779100E-01 -2.15023140E+00
  2.44178820E+00  2.42356590E+00  2.42356590E+00 -3.28001400E-01 -2.13200910E+00
  2.44178820E+00 -3.46223700E-01 -2.11378680E+00  2.42356590E+00 -6.56002800E-01
 -2.15023140E+00  2.44178820E+00 -2.13200910E+00 -2.31423210E+00  2.40534360E+00
 -2.29600980E+00  2.42356590E+00  2.42356590E+00  2.42356590E+00 -3.46223700E-01
 -2.15023140E+00 -6.56002800E-01 -3.28001400E-01 -2.31423210E+00  2.40534360E+00
 -2.13200910E+00 -2.11378680E+00 -3.09779100E-01 -2.15023140E+00 -2.29600980E+00
  2.42356590E+00  2.42356590E+00 -2.13200910E+00  2.44178820E+00 -3.09779100E-01
 -2.15023140E+00  2.44178820E+00  2.42356590E+00  2.42356590E+00 -3.28001400E-01
 -2.13200910E+00  2.44178820E+00 -3.46223700E-01 -2.11378680E+00  2.42356590E+00
 -6.56002800E-01 -2.15023140E+00  2.44178820E+00 -2.13200910E+00 -2.31423210E+00
  2.40534360E+00 -2.29600980E+00  2.42356590E+00  2.42356590E+00  2.42356590E+00
 -3.46223700E-01 -2.15023140E+00 -6.56002800E-01 -3.28001400E-01 -2.31423210E+00
  2.40534360E+00 -2.13200910E+00 -2.11378680E+00 -3.09779100E-01 -2.15023140E+00
 -2.29600980E+00  2.42356590E+00  2.42356590E+00 -2.13200910E+00  2.44178820E+00
 -3.09779100E-01 -2.15023140E+00  2.44178820E+00  2.42356590E+00  2.42356590E+00
 -3.28001400E-01 -2.13200910E+00  2.44178820E+00 -3.46223700E-01 -2.11378680E+00
  2.42356590E+00 -6.56002800E-01 -2.15023140E+00  2.44178820E+00 -2.13200910E+00
 -2.31423210E+00  2.40534360E+00 -2.29600980E+00  2.42356590E+00  2.42356590E+00
  2.42356590E+00 -3.46223700E-01 -2.15023140E+00 -6.56002800E-01 -3.28001400E-01
 -2.31423210E+00  2.40534360E+00 -2.13200910E+00 -2.11378680E+00 -3.09779100E-01
 -2.15023140E+00 -2.29600980E+00  2.42356590E+00  2.42356590E+00 -2.13200910E+00
  2.44178820E+00 -3.09779100E-01 -2.15023140E+00  2.44178820E+00  2.42356590E+00
  2.42356590E+00 -3.28001400E-01 -2.13200910E+00  2.44178820E+00 -3.46223700E-01
 -2.11378680E+00  2.42356590E+00 -6.56002800E-01 -2.15023140E+00  2.44178820E+00
 -2.13200910E+00 -2.31423210E+00  2.40534360E+00 -2.29600980E+00  2.42356590E+00
  2.42356590E+00  2.42356590E+00 -3.46223700E-01 -2.15023140E+00 -6.56002800E-01
 -3.28001400E-01 -2.31423210E+00  2.40534360E+00 -2.13200910E+00 -2.11378680E+00
 -3.09779100E-01 -2.15023140E+00 -2.29600980E+00  2.42356590E+00  2.42356590E+00
 -2.13200910E+00  2.44178820E+00 -3.09779100E-01 -2.15023140E+00  2.44178820E+00
  2.42356590E+00  2.42356590E+00 -3.28001400E-01 -2.13200910E+00  2.44178820E+00
 -3.46223700E-01 -2.11378680E+00  2.42356590E+00 -6.56002800E-01 -2.15023140E+00
  2.44178820E+00 -2.13200910E+00 -2.31423210E+00  2.40534360E+00 -2.29600980E+00
  2.42356590E+00  2.42356590E+00  2.42356590E+00 -3.46223700E-01 -2.15023140E+00
 -6.56002800E-01 -3.28001400E-01 -2.31423210E+00  2.40534360E+00 -2.13200910E+00
 -2.11378680E+00 -3.09779100E-01 -2.15023140E+00 -2.29600980E+00  2.42356590E+00
  2.42356590E+00 -2.13200910E+00  2.44178820E+00 -3.09779100E-01 -2.15023140E+00
  2.44178820E+00  2.42356590E+00  2.42356590E+00 -3.28001400E-01 -2.13200910E+00
  2.44178820E+00 -3.46223700E-01 -2.11378680E+00  2.42356590E+00 -6.56002800E-01
 -2.15023140E+00  2.44178820E+00 -2.13200910E+00 -2.31423210E+00  2.40534360E+00
 -2.29600980E+00  2.42356590E+00  2.42356590E+00  2.42356590E+00 -3.46223700E-01
 -2.15023140E+00 -6.56002800E-01 -3.28001400E-01 -2.31423210E+00  2.40534360E+00
 -2.13200910E+00 -2.11378680E+00 -3.09779100E-01 -2.15023140E+00 -2.29600980E+00
  2.42356590E+00  2.42356590E+00 -2.13200910E+00  2.44178820E+00 -3.09779100E-01
 -2.15023140E+00  2.44178820E+00  2.42356590E+00  2.42356590E+00 -3.28001400E-01
 -2.13200910E+00  2.44178820E+00 -3.46223700E-01 -2.11378680E+00  2.42356590E+00
 -6.56002800E-01 -2.15023140E+00  2.44178820E+00 -2.13200910E+00 -2.31423210E+00
  2.40534360E+00 -2.29600980E+00  2.42356590E+00  2.42356590E+00  2.42356590E+00
 -3.46223700E-01 -2.15023140E+00 -6.56002800E-01 -3.28001400E-01 -2.31423210E+00
  2.40534360E+00 -2.13200910E+00 -2.11378680E+00 -3.09779100E-01 -2.15023140E+00
 -2.29600980E+00  2.42356590E+00  2.42356590E+00 -2.13200910E+00  2.44178820E+00
 -3.09779100E-01 -2.15023140E+00  2.44178820E+00  2.42356590E+00  2.42356590E+00
 -3.28001400E-01 -2.13200910E+00  2.44178820E+00 -3.46223700E-01 -2.11378680E+00
  2.42356590E+00 -6.56002800E-01 -2.15023140E+00  2.44178820E+00 -2.13200910E+00
 -2.31423210E+00  2.40534360E+00 -2.29600980E+00  2.42356590E+00  2.42356590E+00
  2.42356590E+00 -3.46223700E-01 -2.15023140E+00 -6.56002800E-01 -3.28001400E-01
 -2.31423210E+00  2.40534360E+00 -2.13200910E+00 -2.11378680E+00 -3.09779100E-01
 -2.15023140E+00 -2.29600980E+00  2.42356590E+00  2.42356590E+00 -2.13200910E+00
  2.44178820E+00 -3.09779100E-01 -2.15023140E+00  2.44178820E+00  2.42356590E+00
  2.42356590E+00 -3.28001400E-01 -2.13200910E+00  2.44178820E+00 -3.46223700E-01
 -2.11378680E+00  2.42356590E+00 -6.56002800E-01 -2.15023140E+00  2.44178820E+00
 -2.13200910E+00 -2.31423210E+00  2.40534360E+00 -2.29600980E+00  2.42356590E+00
  2.42356590E+00  2.42356590E+00 -3.46223700E-01 -2.15023140E+00 -6.56002800E-01
 -3.28001400E-01 -2.31423210E+00  2.40534360E+00 -2.13200910E+00 -2.11378680E+00
 -3.09779100E-01 -2.15023140E+00 -2.29600980E+00  2.42356590E+00  2.42356590E+00
 -2.13200910E+00  2.44178820E+00 -3.09779100E-01 -2.15023140E+00  2.44178820E+00
  2.42356590E+00  2.42356590E+00 -3.28001400E-01 -2.13200910E+00  2.44178820E+00
 -3.46223700E-01 -2.11378680E+00  2.42356590E+00 -6.56002800E-01 -2.15023140E+00
  2.44178820E+00 -2.13200910E+00 -2.31423210E+00  2.40534360E+00 -2.29600980E+00
  2.42356590E+00  2.42356590E+00  2.42356590E+00 -3.46223700E-01 -2.15023140E+00
 -6.56002800E-01 -3.28001400E-01 -2.31423210E+00  2.40534360E+00 -2.13200910E+00
 -2.11378680E+00 -3.09779100E-01 -2.15023140E+00 -2.29600980E+00  2.42356590E+00
  2.42356590E+00 -2.13200910E+00  2.44178820E+00 -3.09779100E-01 -2.15023140E+00
  2.44178820E+00  2.42356590E+00  2.42356590E+00 -3.28001400E-01 -2.13200910E+00
  2.44178820E+00 -3.46223700E-01 -2.11378680E+00  2.42356590E+00 -6.56002800E-01
 -2.15023140E+00  2.44178820E+00 -2.13200910E+00 -2.31423210E+00  2.40534360E+00
 -2.29600980E+00  2.42356590E+00  2.42356590E+00  2.42356590E+00 -3.46223700E-01
 -2.15023140E+00 -6.56002800E-01 -3.28001400E-01 -2.31423210E+00  2.40534360E+00
 -2.13200910E+00 -2.11378680E+00 -3.09779100E-01 -2.15023140E+00 -2.29600980E+00
  2.42356590E+00  2.42356590E+00 -2.13200910E+00  2.44178820E+00 -3.09779100E-01
 -2.15023140E+00  2.44178820E+00  2.42356590E+00  2.42356590E+00 -3.28001400E-01
 -2.13200910E+00  2.44178820E+00 -3.46223700E-01 -2.11378680E+00  2.42356590E+00
 -6.56002800E-01 -2.15023140E+00  2.44178820E+00 -2.13200910E+00 -2.31423210E+00
  2.40534360E+00 -2.29600980E+00  2.42356590E+00  2.42356590E+00  2.42356590E+00
 -3.46223700E-01 -2.15023140E+00 -6.56002800E-01 -3.28001400E-01 -2.31423210E+00
  2.40534360E+00 -2.13200910E+00 -2.11378680E+00 -3.09779100E-01 -2.15023140E+00
 -2.29600980E+00  2.42356590E+00  2.42356590E+00 -2.13200910E+00  2.44178820E+00
 -3.09779100E-01 -2.15023140E+00  2.44178820E+00  2.42356590E+00  2.42356590E+00
 -3.28001400E-01 -2.13200910E+00  2.44178820E+00 -3.46223700E-01 -2.11378680E+00
  2.42356590E+00 -6.56002800E-01 -2.15023140E+00  2.44178820E+00 -2.13200910E+00
 -2.31423210E+00  2.40534360E+00 -2.29600980E+00  2.42356590E+00  2.42356590E+00
  2.42356590E+00 -3.46223700E-01 -2.15023140E+00 -6.56002800E-01 -3.28001400E-01
 -2.31423210E+00  2.40534360E+00 -2.13200910E+00 -2.11378680E+00 -3.09779100E-01
 -2.15023140E+00 -2.29600980E+00  2.42356590E+00  2.42356590E+00 -2.13200910E+00
  2.44178820E+00 -3.09779100E-01 -2.15023140E+00  2.44178820E+00  2.42356590E+00
  2.42356590E+00 -3.28001400E-01 -2.13200910E+00  2.44178820E+00 -3.46223700E-01
 -2.11378680E+00  2.42356590E+00 -6.56002800E-01 -2.15023140E+00  2.44178820E+00
 -2.13200910E+00 -2.31423210E+00  2.40534360E+00 -2.29600980E+00  2.42356590E+00
  2.42356590E+00  2.42356590E+00 -3.46223700E-01 -2.15023140E+00 -6.56002800E-01
 -3.28001400E-01 -2.31423210E+00  2.40534360E+00 -2.13200910E+00 -2.11378680E+00
 -3.09779100E-01 -2.15023140E+00 -2.29600980E+00  2.42356590E+00  2.42356590E+00
 -2.13200910E+00  2.44178820E+00 -3.09779100E-01 -2.15023140E+00  2.44178820E+00
  2.42356590E+00  2.42356590E+00 -3.28001400E-01 -2.13200910E+00  2.44178820E+00
 -3.46223700E-01 -2.11378680E+00  2.42356590E+00 -6.56002800E-01 -2.15023140E+00
  2.44178820E+00 -2.13200910E+00 -2.31423210E+00  2.40534360E+00 -2.29600980E+00
  2.42356590E+00  2.42356590E+00  2.42356590E+00 -3.46223700E-01 -2.15023140E+00
 -6.56002800E-01 -3.28001400E-01 -2.31423210E+00  2.40534360E+00 -2.13200910E+00
 -2.11378680E+00 -3.09779100E-01 -2.15023140E+00 -2.29600980E+00  2.42356590E+00
  2.42356590E+00 -2.13200910E+00  2.44178820E+00 -3.09779100E-01 -2.15023140E+00
  2.44178820E+00  2.42356590E+00  2.42356590E+00 -3.28001400E-01 -2.13200910E+00
  2.44178820E+00 -3.46223700E-01 -2.11378680E+00  2.42356590E+00 -6.56002800E-01
 -2.15023140E+00  2.44178820E+00 -2.13200910E+00 -2.31423210E+00  2.40534360E+00
 -2.29600980E+00  2.42356590E+00  2.42356590E+00  2.42356590E+00 -3.46223700E-01
 -2.15023140E+00 -6.56002800E-01 -3.28001400E-01 -2.31423210E+00  2.40534360E+00
 -2.13200910E+00 -2.11378680E+00 -3.09779100E-01 -2.15023140E+00 -2.29600980E+00
  2.42356590E+00  2.42356590E+00 -2.13200910E+00  2.44178820E+00 -3.09779100E-01
 -2.15023140E+00  2.44178820E+00  2.42356590E+00  2.42356590E+00 -3.28001400E-01
 -2.13200910E+00  2.44178820E+00 -3.46223700E-01 -2.11378680E+00  2.42356590E+00
 -6.56002800E-01 -2.15023140E+00  2.44178820E+00 -2.13200910E+00 -2.31423210E+00
  2.40534360E+00 -2.29600980E+00  2.42356590E+00  2.42356590E+00  2.42356590E+00
 -3.46223700E-01 -2.15023140E+00 -6.56002800E-01 -3.28001400E-01 -2.31423210E+00
  2.40534360E+00 -2.13200910E+00 -2.11378680E+00 -3.09779100E-01 -2.15023140E+00
 -2.29600980E+00  2.42356590E+00  2.42356590E+00 -2.13200910E+00  2.44178820E+00
 -3.09779100E-01 -2.15023140E+00  2.44178820E+00  2.42356590E+00  2.42356590E+00
 -3.28001400E-01 -2.13200910E+00  2.44178820E+00 -3.46223700E-01 -2.11378680E+00
  2.42356590E+00 -6.56002800E-01 -2.15023140E+00  2.44178820E+00 -2.13200910E+00
 -2.31423210E+00  2.40534360E+00 -2.29600980E+00  2.42356590E+00  2.42356590E+00
  2.42356590E+00 -3.46223700E-01 -2.15023140E+00 -6.56002800E-01 -3.28001400E-01
 -2.31423210E+00  2.40534360E+00 -2.13200910E+00 -2.11378680E+00 -3.09779100E-01
 -2.15023140E+00 -2.29600980E+00  2.42356590E+00  2.42356590E+00 -2.13200910E+00
  2.44178820E+00 -3.09779100E-01 -2.15023140E+00  2.44178820E+00  2.42356590E+00
  2.42356590E+00 -3.28001400E-01 -2.13200910E+00  2.44178820E+00 -3.46223700E-01
 -2.11378680E+00  2.42356590E+00 -6.56002800E-01 -2.15023140E+00  2.44178820E+00
 -2.13200910E+00 -2.31423210E+00  2.40534360E+00 -2.29600980E+00  2.42356590E+00
  2.42356590E+00  2.42356590E+00 -3.46223700E-01 -2.15023140E+00 -6.56002800E-01
 -3.28001400E-01 -2.31423210E+00  2.40534360E+00 -2.13200910E+00 -2.11378680E+00
 -3.09779100E-01 -2.15023140E+00 -2.29600980E+00  2.42356590E+00  2.42356590E+00
 -2.13200910E+00  2.44178820E+00 -3.09779100E-01 -2.15023140E+00  2.44178820E+00
  2.42356590E+00  2.42356590E+00 -3.28001400E-01 -2.13200910E+00  2.44178820E+00
 -3.46223700E-01 -2.11378680E+00  2.42356590E+00 -6.56002800E-01 -2.15023140E+00
  2.44178820E+00 -2.13200910E+00 -2.31423210E+00  2.40534360E+00 -2.29600980E+00
  2.42356590E+00  2.42356590E+00  2.42356590E+00 -3.46223700E-01 -2.15023140E+00
 -6.56002800E-01 -3.28001400E-01 -2.31423210E+00  2.40534360E+00 -2.13200910E+00
 -2.11378680E+00 -3.09779100E-01 -2.15023140E+00 -2.29600980E+00  2.42356590E+00
  2.42356590E+00 -2.13200910E+00  2.44178820E+00 -3.09779100E-01 -2.15023140E+00
  2.44178820E+00  2.42356590E+00  2.42356590E+00 -3.28001400E-01 -2.13200910E+00
  2.44178820E+00 -3.46223700E-01 -2.11378680E+00  2.42356590E+00 -6.56002800E-01
 -2.15023140E+00  2.44178820E+00 -2.13200910E+00 -2.31423210E+00  2.40534360E+00
 -2.29600980E+00  2.42356590E+00  2.42356590E+00  2.42356590E+00 -3.46223700E-01
 -2.15023140E+00 -6.56002800E-01 -3.28001400E-01 -2.31423210E+00  2.40534360E+00
 -2.13200910E+00 -2.11378680E+00 -3.09779100E-01 -2.15023140E+00 -2.29600980E+00
  2.42356590E+00  2.42356590E+00 -2.13200910E+00  2.44178820E+00 -3.09779100E-01
 -2.15023140E+00  2.44178820E+00  2.42356590E+00  2.42356590E+00 -3.28001400E-01
 -2.13200910E+00  2.44178820E+00 -3.46223700E-01 -2.11378680E+00  2.42356590E+00
 -6.56002800E-01 -2.15023140E+00  2.44178820E+00 -2.13200910E+00 -2.31423210E+00
  2.40534360E+00 -2.29600980E+00  2.42356590E+00  2.42356590E+00  2.42356590E+00
 -3.46223700E-01 -2.15023140E+00 -6.56002800E-01 -3.28001400E-01 -2.31423210E+00
  2.40534360E+00 -2.13200910E+00 -2.11378680E+00 -3.09779100E-01 -2.15023140E+00
 -2.29600980E+00  2.42356590E+00  2.42356590E+00 -2.13200910E+00  2.44178820E+00
 -3.09779100E-01 -2.15023140E+00  2.44178820E+00  2.42356590E+00  2.42356590E+00
 -3.28001400E-01 -2.13200910E+00  2.44178820E+00 -3.46223700E-01 -2.11378680E+00
  2.42356590E+00 -6.56002800E-01 -2.15023140E+00  2.44178820E+00 -2.13200910E+00
 -2.31423210E+00  2.40534360E+00 -2.29600980E+00  2.42356590E+00  2.42356590E+00
  2.42356590E+00 -3.46223700E-01 -2.15023140E+00 -6.56002800E-01 -3.28001400E-01
 -2.31423210E+00  2.40534360E+00 -2.13200910E+00 -2.11378680E+00 -3.09779100E-01
 -2.15023140E+00 -2.29600980E+00  2.42356590E+00  2.42356590E+00 -2.13200910E+00
  2.44178820E+00 -3.09779100E-01 -2.15023140E+00  2.44178820E+00  2.42356590E+00
  2.42356590E+00 -3.28001400E-01 -2.13200910E+00  2.44178820E+00 -3.46223700E-01
 -2.11378680E+00  2.42356590E+00 -6.56002800E-01 -2.15023140E+00  2.44178820E+00
 -2.13200910E+00 -2.31423210E+00  2.40534360E+00 -2.29600980E+00  2.42356590E+00
  2.42356590E+00  2.42356590E+00 -3.46223700E-01 -2.15023140E+00 -6.56002800E-01
 -3.28001400E-01 -2.31423210E+00  2.40534360E+00 -2.13200910E+00 -2.11378680E+00
 -3.09779100E-01 -2.15023140E+00 -2.29600980E+00  2.42356590E+00  2.42356590E+00
 -2.13200910E+00  2.44178820E+00 -3.09779100E-01 -2.15023140E+00  2.44178820E+00
  2.42356590E+00  2.42356590E+00 -3.28001400E-01 -2.13200910E+00  2.44178820E+00
 -3.46223700E-01 -2.11378680E+00  2.42356590E+00 -6.56002800E-01 -2.15023140E+00
  2.44178820E+00 -2.13200910E+00 -2.31423210E+00  2.40534360E+00 -2.29600980E+00
  2.42356590E+00  2.42356590E+00  2.42356590E+00 -3.46223700E-01 -2.15023140E+00
 -6.56002800E-01 -3.28001400E-01 -2.31423210E+00  2.40534360E+00 -2.13200910E+00
 -2.11378680E+00 -3.09779100E-01 -2.15023140E+00 -2.29600980E+00  2.42356590E+00
  2.42356590E+00 -2.13200910E+00  2.44178820E+00 -3.09779100E-01 -2.15023140E+00
  2.44178820E+00  2.42356590E+00  2.42356590E+00 -3.28001400E-01 -2.13200910E+00
  2.44178820E+00 -3.46223700E-01 -2.11378680E+00  2.42356590E+00 -6.56002800E-01
 -2.15023140E+00  2.44178820E+00 -2.13200910E+00 -2.31423210E+00  2.40534360E+00
 -2.29600980E+00  2.42356590E+00  2.42356590E+00  2.42356590E+00 -3.46223700E-01
 -2.15023140E+00 -6.56002800E-01 -3.28001400E-01 -2.31423210E+00  2.40534360E+00
 -2.13200910E+00 -2.11378680E+00 -3.09779100E-01 -2.15023140E+00 -2.29600980E+00
  2.42356590E+00  2.42356590E+00 -2.13200910E+00  2.44178820E+00 -3.09779100E-01
 -2.15023140E+00  2.44178820E+00  2.42356590E+00  2.42356590E+00 -3.28001400E-01
 -2.13200910E+00  2.44178820E+00 -3.46223700E-01 -2.11378680E+00  2.42356590E+00
 -6.56002800E-01 -2.15023140E+00  2.44178820E+00 -2.13200910E+00 -2.31423210E+00
  2.40534360E+00 -2.29600980E+00  2.42356590E+00  2.42356590E+00  2.42356590E+00
 -3.46223700E-01 -2.15023140E+00 -6.56002800E-01 -3.28001400E-01 -2.31423210E+00
  2.40534360E+00 -2.13200910E+00 -2.11378680E+00 -3.09779100E-01 -2.15023140E+00
 -2.29600980E+00  2.42356590E+00  2.42356590E+00 -2.13200910E+00  2.44178820E+00
 -3.09779100E-01 -2.15023140E+00  2.44178820E+00  2.42356590E+00  2.42356590E+00
 -3.28001400E-01 -2.13200910E+00  2.44178820E+00 -3.46223700E-01 -2.11378680E+00
  2.42356590E+00 -6.56002800E-01 -2.15023140E+00  2.44178820E+00 -2.13200910E+00
 -2.31423210E+00  2.40534360E+00 -2.29600980E+00  2.42356590E+00  2.42356590E+00
  2.42356590E+00 -3.46223700E-01 -2.15023140E+00 -6.56002800E-01 -3.28001400E-01
 -2.31423210E+00  2.40534360E+00 -2.13200910E+00 -2.11378680E+00 -3.09779100E-01
 -2.15023140E+00 -2.29600980E+00  2.42356590E+00  2.42356590E+00 -2.13200910E+00
  2.44178820E+00 -3.09779100E-01 -2.15023140E+00  2.44178820E+00  2.42356590E+00
  2.42356590E+00 -3.28001400E-01 -2.13200910E+00  2.44178820E+00 -3.46223700E-01
 -2.11378680E+00  2.42356590E+00 -6.56002800E-01 -2.15023140E+00  2.44178820E+00
 -2.13200910E+00 -2.31423210E+00  2.40534360E+00 -2.29600980E+00  2.42356590E+00
  2.42356590E+00  2.42356590E+00 -3.46223700E-01 -2.15023140E+00 -6.56002800E-01
 -3.28001400E-01 -2.31423210E+00  2.40534360E+00 -2.13200910E+00 -2.11378680E+00
 -3.09779100E-01 -2.15023140E+00 -2.29600980E+00  2.42356590E+00  2.42356590E+00
 -2.13200910E+00  2.44178820E+00 -3.09779100E-01 -2.15023140E+00  2.44178820E+00
  2.42356590E+00  2.42356590E+00 -3.28001400E-01 -2.13200910E+00  2.44178820E+00
 -3.46223700E-01 -2.11378680E+00  2.42356590E+00 -6.56002800E-01 -2.15023140E+00
  2.44178820E+00 -2.13200910E+00 -2.31423210E+00  2.40534360E+00 -2.29600980E+00
  2.42356590E+00  2.42356590E+00  2.42356590E+00 -3.46223700E-01 -2.15023140E+00
 -6.56002800E-01 -3.28001400E-01 -2.31423210E+00  2.40534360E+00 -2.13200910E+00
 -2.11378680E+00 -3.09779100E-01 -2.15023140E+00 -2.29600980E+00  2.42356590E+00
  2.42356590E+00 -2.13200910E+00  2.44178820E+00 -3.09779100E-01 -2.15023140E+00
  2.44178820E+00  2.42356590E+00  2.42356590E+00 -3.28001400E-01 -2.13200910E+00
  2.44178820E+00 -3.46223700E-01 -2.11378680E+00  2.42356590E+00 -6.56002800E-01
 -2.15023140E+00  2.44178820E+00 -2.13200910E+00 -2.31423210E+00  2.40534360E+00
 -2.29600980E+00  2.42356590E+00  2.42356590E+00  2.42356590E+00 -3.46223700E-01
 -2.15023140E+00 -6.56002800E-01 -3.28001400E-01 -2.31423210E+00  2.40534360E+00
 -2.13200910E+00 -2.11378680E+00 -3.09779100E-01 -2.15023140E+00 -2.29600980E+00
  2.42356590E+00  2.42356590E+00 -2.13200910E+00  2.44178820E+00 -3.09779100E-01
 -2.15023140E+00  2.44178820E+00  2.42356590E+00  2.42356590E+00 -3.28001400E-01
 -2.13200910E+00  2.44178820E+00 -3.46223700E-01 -2.11378680E+00  2.42356590E+00
 -6.56002800E-01 -2.15023140E+00  2.44178820E+00 -2.13200910E+00 -2.31423210E+00
  2.40534360E+00 -2.29600980E+00  2.42356590E+00  2.42356590E+00  2.42356590E+00
 -3.46223700E-01 -2.15023140E+00 -6.56002800E-01 -3.28001400E-01 -2.31423210E+00
  2.40534360E+00 -2.13200910E+00 -2.11378680E+00 -3.09779100E-01 -2.15023140E+00
 -2.29600980E+00  2.42356590E+00  2.42356590E+00 -2.13200910E+00  2.44178820E+00
 -3.09779100E-01 -2.15023140E+00  2.44178820E+00  2.42356590E+00  2.42356590E+00
 -3.28001400E-01 -2.13200910E+00  2.44178820E+00 -3.46223700E-01 -2.11378680E+00
  2.42356590E+00 -6.56002800E-01 -2.15023140E+00  2.44178820E+00 -2.13200910E+00
 -2.31423210E+00  2.40534360E+00 -2.29600980E+00  2.42356590E+00  2.42356590E+00
  2.42356590E+00 -3.46223700E-01 -2.15023140E+00 -6.56002800E-01 -3.28001400E-01
 -2.31423210E+00  2.40534360E+00 -2.13200910E+00 -2.11378680E+00 -3.09779100E-01
 -2.15023140E+00 -2.29600980E+00  2.42356590E+00  2.42356590E+00 -2.13200910E+00
  2.44178820E+00 -3.09779100E-01 -2.15023140E+00  2.44178820E+00  2.42356590E+00
  2.42356590E+00 -3.28001400E-01 -2.13200910E+00  2.44178820E+00 -3.46223700E-01
 -2.11378680E+00  2.42356590E+00 -6.56002800E-01 -2.15023140E+00  2.44178820E+00
 -2.13200910E+00 -2.31423210E+00  2.40534360E+00 -2.29600980E+00  2.42356590E+00
  2.42356590E+00  2.42356590E+00 -3.46223700E-01 -2.15023140E+00 -6.56002800E-01
 -3.28001400E-01 -2.31423210E+00  2.40534360E+00 -2.13200910E+00 -2.11378680E+00
 -3.09779100E-01 -2.15023140E+00 -2.29600980E+00  2.42356590E+00  2.42356590E+00
 -2.13200910E+00  2.44178820E+00 -3.09779100E-01 -2.15023140E+00  2.44178820E+00
  2.42356590E+00  2.42356590E+00 -3.28001400E-01 -2.13200910E+00  2.44178820E+00
 -3.46223700E-01 -2.11378680E+00  2.42356590E+00 -6.56002800E-01 -2.15023140E+00
  2.44178820E+00 -2.13200910E+00 -2.31423210E+00  2.40534360E+00 -2.29600980E+00
  2.42356590E+00  2.42356590E+00  2.42356590E+00 -3.46223700E-01 -2.15023140E+00
 -6.56002800E-01 -3.28001400E-01 -2.31423210E+00  2.40534360E+00 -2.13200910E+00
 -2.11378680E+00 -3.09779100E-01 -2.15023140E+00 -2.29600980E+00  2.42356590E+00
  2.42356590E+00 -2.13200910E+00  2.44178820E+00 -3.09779100E-01 -2.15023140E+00
  2.44178820E+00  2.42356590E+00  2.42356590E+00 -3.28001400E-01 -2.13200910E+00
  2.44178820E+00 -3.46223700E-01 -2.11378680E+00  2.42356590E+00 -6.56002800E-01
 -2.15023140E+00  2.44178820E+00 -2.13200910E+00 -2.31423210E+00  2.40534360E+00
 -2.29600980E+00  2.42356590E+00  2.42356590E+00  2.42356590E+00 -3.46223700E-01
 -2.15023140E+00 -6.56002800E-01 -3.28001400E-01 -2.31423210E+00  2.40534360E+00
 -2.13200910E+00 -2.11378680E+00 -3.09779100E-01 -2.15023140E+00 -2.29600980E+00
  2.42356590E+00  2.42356590E+00 -2.13200910E+00  2.44178820E+00 -3.09779100E-01
 -2.15023140E+00  2.44178820E+00  2.42356590E+00  2.42356590E+00 -3.28001400E-01
 -2.13200910E+00  2.44178820E+00 -3.46223700E-01 -2.11378680E+00  2.42356590E+00
 -6.56002800E-01 -2.15023140E+00  2.44178820E+00 -2.13200910E+00 -2.31423210E+00
  2.40534360E+00 -2.29600980E+00  2.42356590E+00  2.42356590E+00  2.42356590E+00
 -3.46223700E-01 -2.15023140E+00 -6.56002800E-01 -3.28001400E-01 -2.31423210E+00
  2.40534360E+00 -2.13200910E+00 -2.11378680E+00 -3.09779100E-01 -2.15023140E+00
 -2.29600980E+00  2.42356590E+00  2.42356590E+00 -2.13200910E+00  2.44178820E+00
 -3.09779100E-01 -2.15023140E+00  2.44178820E+00  2.42356590E+00  2.42356590E+00
 -3.28001400E-01 -2.13200910E+00  2.44178820E+00 -3.46223700E-01 -2.11378680E+00
  2.42356590E+00 -6.56002800E-01 -2.15023140E+00  2.44178820E+00 -2.13200910E+00
 -2.31423210E+00  2.40534360E+00 -2.29600980E+00  2.42356590E+00  2.42356590E+00
  2.42356590E+00 -3.46223700E-01 -2.15023140E+00 -6.56002800E-01 -3.28001400E-01
 -2.31423210E+00  2.40534360E+00 -2.13200910E+00 -2.11378680E+00 -3.09779100E-01
 -2.15023140E+00 -2.29600980E+00  2.42356590E+00  2.42356590E+00 -2.13200910E+00
  2.44178820E+00 -3.09779100E-01 -2.15023140E+00  2.44178820E+00  2.42356590E+00
  2.42356590E+00 -3.28001400E-01 -2.13200910E+00  2.44178820E+00 -3.46223700E-01
 -2.11378680E+00  2.42356590E+00 -6.56002800E-01 -2.15023140E+00  2.44178820E+00
 -2.13200910E+00 -2.31423210E+00  2.40534360E+00 -2.29600980E+00  2.42356590E+00
  2.42356590E+00  2.42356590E+00 -3.46223700E-01 -2.15023140E+00 -6.56002800E-01
 -3.28001400E-01 -2.31423210E+00  2.40534360E+00 -2.13200910E+00 -2.11378680E+00
 -3.09779100E-01 -2.15023140E+00 -2.29600980E+00  2.42356590E+00  2.42356590E+00
 -2.13200910E+00  2.44178820E+00 -3.09779100E-01 -2.15023140E+00  2.44178820E+00
  2.42356590E+00  2.42356590E+00 -3.28001400E-01 -2.13200910E+00  2.44178820E+00
 -3.46223700E-01 -2.11378680E+00  2.42356590E+00 -6.56002800E-01 -2.15023140E+00
  2.44178820E+00 -2.13200910E+00 -2.31423210E+00  2.40534360E+00 -2.29600980E+00
  2.42356590E+00  2.42356590E+00  2.42356590E+00 -3.46223700E-01 -2.15023140E+00
 -6.56002800E-01 -3.28001400E-01 -2.31423210E+00  2.40534360E+00 -2.13200910E+00
 -2.11378680E+00 -3.09779100E-01 -2.15023140E+00 -2.29600980E+00  2.42356590E+00
  2.42356590E+00 -2.13200910E+00  2.44178820E+00 -3.09779100E-01 -2.15023140E+00
  2.44178820E+00  2.42356590E+00  2.42356590E+00 -3.28001400E-01 -2.13200910E+00
  2.44178820E+00 -3.46223700E-01 -2.11378680E+00  2.42356590E+00 -6.56002800E-01
 -2.15023140E+00  2.44178820E+00 -2.13200910E+00 -2.31423210E+00  2.40534360E+00
 -2.29600980E+00  2.42356590E+00  2.42356590E+00  2.42356590E+00 -3.46223700E-01
 -2.15023140E+00 -6.56002800E-01 -3.28001400E-01 -2.31423210E+00  2.40534360E+00
 -2.13200910E+00 -2.11378680E+00 -3.09779100E-01 -2.15023140E+00 -2.29600980E+00
  2.42356590E+00  2.42356590E+00 -2.13200910E+00  2.44178820E+00 -3.09779100E-01
 -2.15023140E+00  2.44178820E+00  2.42356590E+00  2.42356590E+00 -3.28001400E-01
 -2.13200910E+00  2.44178820E+00 -3.46223700E-01 -2.11378680E+00  2.42356590E+00
 -6.56002800E-01 -2.15023140E+00  2.44178820E+00 -2.13200910E+00 -2.31423210E+00
  2.40534360E+00 -2.29600980E+00  2.42356590E+00  2.42356590E+00  2.42356590E+00
 -3.46223700E-01 -2.15023140E+00 -6.56002800E-01 -3.28001400E-01 -2.31423210E+00
  2.40534360E+00 -2.13200910E+00 -2.11378680E+00 -3.09779100E-01 -2.15023140E+00
 -2.29600980E+00  2.42356590E+00  2.42356590E+00 -2.13200910E+00  2.44178820E+00
 -3.09779100E-01 -2.15023140E+00  2.44178820E+00  2.42356590E+00  2.42356590E+00
 -3.28001400E-01 -2.13200910E+00  2.44178820E+00 -3.46223700E-01 -2.11378680E+00
  2.42356590E+00 -6.56002800E-01 -2.15023140E+00  2.44178820E+00 -2.13200910E+00
 -2.31423210E+00  2.40534360E+00 -2.29600980E+00  2.42356590E+00  2.42356590E+00
  2.42356590E+00 -3.46223700E-01 -2.15023140E+00 -6.56002800E-01 -3.28001400E-01
 -2.31423210E+00  2.40534360E+00 -2.13200910E+00 -2.11378680E+00 -3.09779100E-01
 -2.15023140E+00 -2.29600980E+00  2.42356590E+00  2.42356590E+00 -2.13200910E+00
  2.44178820E+00 -3.09779100E-01 -2.15023140E+00  2.44178820E+00  2.42356590E+00
  2.42356590E+00 -3.28001400E-01 -2.13200910E+00  2.44178820E+00 -3.46223700E-01
 -2.11378680E+00  2.42356590E+00 -6.56002800E-01 -2.15023140E+00  2.44178820E+00
 -2.13200910E+00 -2.31423210E+00  2.40534360E+00 -2.29600980E+00  2.42356590E+00
  2.42356590E+00  2.42356590E+00 -3.46223700E-01 -2.15023140E+00 -6.56002800E-01
 -3.28001400E-01 -2.31423210E+00  2.40534360E+00 -2.13200910E+00 -2.11378680E+00
 -3.09779100E-01 -2.15023140E+00 -2.29600980E+00  2.42356590E+00  2.42356590E+00
 -2.13200910E+00  2.44178820E+00 -3.09779100E-01 -2.15023140E+00  2.44178820E+00
  2.42356590E+00  2.42356590E+00 -3.28001400E-01 -2.13200910E+00  2.44178820E+00
 -3.46223700E-01 -2.11378680E+00  2.42356590E+00 -6.56002800E-01 -2.15023140E+00
  2.44178820E+00 -2.13200910E+00 -2.31423210E+00  2.40534360E+00 -2.29600980E+00
  2.42356590E+00  2.42356590E+00  2.42356590E+00 -3.46223700E-01 -2.15023140E+00
 -6.56002800E-01 -3.28001400E-01 -2.31423210E+00  2.40534360E+00 -2.13200910E+00
 -2.11378680E+00 -3.09779100E-01 -2.15023140E+00 -2.29600980E+00  2.42356590E+00
  2.42356590E+00 -2.13200910E+00  2.44178820E+00 -3.09779100E-01 -2.15023140E+00
  2.44178820E+00  2.42356590E+00  2.42356590E+00 -3.28001400E-01 -2.13200910E+00
  2.44178820E+00 -3.46223700E-01 -2.11378680E+00  2.42356590E+00 -6.56002800E-01
 -2.15023140E+00  2.44178820E+00 -2.13200910E+00 -2.31423210E+00  2.40534360E+00
 -2.29600980E+00  2.42356590E+00  2.42356590E+00  2.42356590E+00 -3.46223700E-01
 -2.15023140E+00 -6.56002800E-01 -3.28001400E-01 -2.31423210E+00  2.40534360E+00
 -2.13200910E+00 -2.11378680E+00 -3.09779100E-01 -2.15023140E+00 -2.29600980E+00
  2.42356590E+00  2.42356590E+00 -2.13200910E+00  2.44178820E+00 -3.09779100E-01
 -2.15023140E+00  2.44178820E+00  2.42356590E+00  2.42356590E+00 -3.28001400E-01
 -2.13200910E+00  2.44178820E+00 -3.46223700E-01 -2.11378680E+00  2.42356590E+00
 -6.56002800E-01 -2.15023140E+00  2.44178820E+00 -2.13200910E+00 -2.31423210E+00
  2.40534360E+00 -2.29600980E+00  2.42356590E+00  2.42356590E+00  2.42356590E+00
 -3.46223700E-01 -2.15023140E+00 -6.56002800E-01 -3.28001400E-01 -2.31423210E+00
  2.40534360E+00 -2.13200910E+00 -2.11378680E+00 -3.09779100E-01 -2.15023140E+00
 -2.29600980E+00  2.42356590E+00  2.42356590E+00 -2.13200910E+00  2.44178820E+00
 -3.09779100E-01 -2.15023140E+00  2.44178820E+00  2.42356590E+00  2.42356590E+00
 -3.28001400E-01 -2.13200910E+00  2.44178820E+00 -3.46223700E-01 -2.11378680E+00
  2.42356590E+00 -6.56002800E-01 -2.15023140E+00  2.44178820E+00 -2.13200910E+00
 -2.31423210E+00  2.40534360E+00 -2.29600980E+00  2.42356590E+00  2.42356590E+00
  2.42356590E+00 -3.46223700E-01 -2.15023140E+00 -6.56002800E-01 -3.28001400E-01
 -2.31423210E+00  2.40534360E+00 -2.13200910E+00 -2.11378680E+00 -3.09779100E-01
 -2.15023140E+00 -2.29600980E+00  2.42356590E+00  2.42356590E+00 -2.13200910E+00
  2.44178820E+00 -3.09779100E-01 -2.15023140E+00  2.44178820E+00  2.42356590E+00
  2.42356590E+00 -3.28001400E-01 -2.13200910E+00  2.44178820E+00 -3.46223700E-01
 -2.11378680E+00  2.42356590E+00 -6.56002800E-01 -2.15023140E+00  2.44178820E+00
 -2.13200910E+00 -2.31423210E+00  2.40534360E+00 -2.29600980E+00  2.42356590E+00
  2.42356590E+00  2.42356590E+00 -3.46223700E-01 -2.15023140E+00 -6.56002800E-01
 -3.28001400E-01 -2.31423210E+00  2.40534360E+00 -2.13200910E+00 -2.11378680E+00
 -3.09779100E-01 -2.15023140E+00 -2.29600980E+00  2.42356590E+00  2.42356590E+00
 -2.13200910E+00  2.44178820E+00 -3.09779100E-01 -2.15023140E+00  2.44178820E+00
  2.42356590E+00  2.42356590E+00 -3.28001400E-01 -2.13200910E+00  2.44178820E+00
 -3.46223700E-01 -2.11378680E+00  2.42356590E+00 -6.56002800E-01 -2.15023140E+00
  2.44178820E+00 -2.13200910E+00 -2.31423210E+00  2.40534360E+00 -2.29600980E+00
  2.42356590E+00  2.42356590E+00  2.42356590E+00 -3.46223700E-01 -2.15023140E+00
 -6.56002800E-01 -3.28001400E-01 -2.31423210E+00  2.40534360E+00 -2.13200910E+00
 -2.11378680E+00 -3.09779100E-01 -2.15023140E+00 -2.29600980E+00  2.42356590E+00
  2.42356590E+00 -2.13200910E+00  2.44178820E+00 -3.09779100E-01 -2.15023140E+00
  2.44178820E+00  2.42356590E+00  2.42356590E+00 -3.28001400E-01 -2.13200910E+00
  2.44178820E+00 -3.46223700E-01 -2.11378680E+00  2.42356590E+00 -6.56002800E-01
 -2.15023140E+00  2.44178820E+00 -2.13200910E+00 -2.31423210E+00  2.40534360E+00
 -2.29600980E+00  2.42356590E+00  2.42356590E+00  2.42356590E+00 -3.46223700E-01
 -2.15023140E+00 -6.56002800E-01 -3.28001400E-01 -2.31423210E+00  2.40534360E+00
 -2.13200910E+00 -2.11378680E+00 -3.09779100E-01 -2.15023140E+00 -2.29600980E+00
  2.42356590E+00  2.42356590E+00 -2.13200910E+00  2.44178820E+00 -3.09779100E-01
 -2.15023140E+00  2.44178820E+00  2.42356590E+00  2.42356590E+00 -3.28001400E-01
 -2.13200910E+00  2.44178820E+00 -3.46223700E-01 -2.11378680E+00  2.42356590E+00
 -6.56002800E-01 -2.15023140E+00  2.44178820E+00 -2.13200910E+00 -2.31423210E+00
  2.40534360E+00 -2.29600980E+00  2.42356590E+00  2.42356590E+00  2.42356590E+00
 -3.46223700E-01 -2.15023140E+00 -6.56002800E-01 -3.28001400E-01 -2.31423210E+00
  2.40534360E+00 -2.13200910E+00 -2.11378680E+00 -3.09779100E-01 -2.15023140E+00
 -2.29600980E+00  2.42356590E+00  2.42356590E+00 -2.13200910E+00  2.44178820E+00
 -3.09779100E-01 -2.15023140E+00  2.44178820E+00  2.42356590E+00  2.42356590E+00
 -3.28001400E-01 -2.13200910E+00  2.44178820E+00 -3.46223700E-01 -2.11378680E+00
  2.42356590E+00 -6.56002800E-01 -2.15023140E+00  2.44178820E+00 -2.13200910E+00
 -2.31423210E+00  2.40534360E+00 -2.29600980E+00  2.42356590E+00  2.42356590E+00
  2.42356590E+00 -3.46223700E-01 -2.15023140E+00 -6.56002800E-01 -3.28001400E-01
 -2.31423210E+00  2.40534360E+00 -2.13200910E+00 -2.11378680E+00 -3.09779100E-01
 -2.15023140E+00 -2.29600980E+00  2.42356590E+00  2.42356590E+00 -2.13200910E+00
  2.44178820E+00 -3.09779100E-01 -2.15023140E+00  2.44178820E+00  2.42356590E+00
  2.42356590E+00 -3.28001400E-01 -2.13200910E+00  2.44178820E+00 -3.46223700E-01
 -2.11378680E+00  2.42356590E+00 -6.56002800E-01 -2.15023140E+00  2.44178820E+00
 -2.13200910E+00 -2.31423210E+00  2.40534360E+00 -2.29600980E+00  2.42356590E+00
  2.42356590E+00  2.42356590E+00 -3.46223700E-01 -2.15023140E+00 -6.56002800E-01
 -3.28001400E-01 -2.31423210E+00  2.40534360E+00 -2.13200910E+00 -2.11378680E+00
 -3.09779100E-01 -2.15023140E+00 -2.29600980E+00  2.42356590E+00  2.42356590E+00
 -2.13200910E+00  2.44178820E+00 -3.09779100E-01 -2.15023140E+00  2.44178820E+00
  2.42356590E+00  2.42356590E+00 -3.28001400E-01 -2.13200910E+00  2.44178820E+00
 -3.46223700E-01 -2.11378680E+00  2.42356590E+00 -6.56002800E-01 -2.15023140E+00
  2.44178820E+00 -2.13200910E+00 -2.31423210E+00  2.40534360E+00 -2.29600980E+00
  2.42356590E+00  2.42356590E+00  2.42356590E+00 -3.46223700E-01 -2.15023140E+00
 -6.56002800E-01 -3.28001400E-01 -2.31423210E+00  2.40534360E+00 -2.13200910E+00
 -2.11378680E+00 -3.09779100E-01 -2.15023140E+00 -2.29600980E+00  2.42356590E+00
  2.42356590E+00 -2.13200910E+00  2.44178820E+00 -3.09779100E-01 -2.15023140E+00
  2.44178820E+00  2.42356590E+00  2.42356590E+00 -3.28001400E-01 -2.13200910E+00
  2.44178820E+00 -3.46223700E-01 -2.11378680E+00  2.42356590E+00 -6.56002800E-01
 -2.15023140E+00  2.44178820E+00 -2.13200910E+00 -2.31423210E+00  2.40534360E+00
 -2.29600980E+00  2.42356590E+00  2.42356590E+00  2.42356590E+00 -3.46223700E-01
 -2.15023140E+00 -6.56002800E-01 -3.28001400E-01 -2.31423210E+00  2.40534360E+00
 -2.13200910E+00 -2.11378680E+00 -3.09779100E-01 -2.15023140E+00 -2.29600980E+00
  2.42356590E+00  2.42356590E+00 -2.13200910E+00  2.44178820E+00 -3.09779100E-01
 -2.15023140E+00  2.44178820E+00  2.42356590E+00  2.42356590E+00 -3.28001400E-01
 -2.13200910E+00  2.44178820E+00 -3.46223700E-01 -2.11378680E+00  2.42356590E+00
 -6.56002800E-01 -2.15023140E+00  2.44178820E+00 -2.13200910E+00 -2.31423210E+00
  2.40534360E+00 -2.29600980E+00  2.42356590E+00  2.42356590E+00  2.42356590E+00
 -3.46223700E-01 -2.15023140E+00 -6.56002800E-01 -3.28001400E-01 -2.31423210E+00
  2.40534360E+00 -2.13200910E+00 -2.11378680E+00 -3.09779100E-01 -2.15023140E+00
 -2.29600980E+00  2.42356590E+00  2.42356590E+00 -2.13200910E+00  2.44178820E+00
 -3.09779100E-01 -2.15023140E+00  2.44178820E+00  2.42356590E+00  2.42356590E+00
 -3.28001400E-01 -2.13200910E+00  2.44178820E+00 -3.46223700E-01 -2.11378680E+00
  2.42356590E+00 -6.56002800E-01 -2.15023140E+00  2.44178820E+00 -2.13200910E+00
 -2.31423210E+00  2.40534360E+00 -2.29600980E+00  2.42356590E+00  2.42356590E+00
  2.42356590E+00 -3.46223700E-01 -2.15023140E+00 -6.56002800E-01 -3.28001400E-01
 -2.31423210E+00  2.40534360E+00 -2.13200910E+00 -2.11378680E+00 -3.09779100E-01
 -2.15023140E+00 -2.29600980E+00  2.42356590E+00  2.42356590E+00 -2.13200910E+00
  2.44178820E+00 -3.09779100E-01 -2.15023140E+00  2.44178820E+00  2.42356590E+00
  2.42356590E+00 -3.28001400E-01 -2.13200910E+00  2.44178820E+00 -3.46223700E-01
 -2.11378680E+00  2.42356590E+00 -6.56002800E-01 -2.15023140E+00  2.44178820E+00
 -2.13200910E+00 -2.31423210E+00  2.40534360E+00 -2.29600980E+00  2.42356590E+00
  2.42356590E+00  2.42356590E+00 -3.46223700E-01 -2.15023140E+00 -6.56002800E-01
 -3.28001400E-01 -2.31423210E+00  2.40534360E+00 -2.13200910E+00 -2.11378680E+00
 -3.09779100E-01 -2.15023140E+00 -2.29600980E+00  2.42356590E+00  2.42356590E+00
 -2.13200910E+00  2.44178820E+00 -3.09779100E-01 -2.15023140E+00  2.44178820E+00
  2.42356590E+00  2.42356590E+00 -3.28001400E-01 -2.13200910E+00  2.44178820E+00
 -3.46223700E-01 -2.11378680E+00  2.42356590E+00 -6.56002800E-01 -2.15023140E+00
  2.44178820E+00 -2.13200910E+00 -2.31423210E+00  2.40534360E+00 -2.29600980E+00
  2.42356590E+00  2.42356590E+00  2.42356590E+00 -3.46223700E-01 -2.15023140E+00
 -6.56002800E-01 -3.28001400E-01 -2.31423210E+00  2.40534360E+00 -2.13200910E+00
 -2.11378680E+00 -3.09779100E-01 -2.15023140E+00 -2.29600980E+00  2.42356590E+00
  2.42356590E+00 -2.13200910E+00  2.44178820E+00 -3.09779100E-01 -2.15023140E+00
  2.44178820E+00  2.42356590E+00  2.42356590E+00 -3.28001400E-01 -2.13200910E+00
  2.44178820E+00 -3.46223700E-01 -2.11378680E+00  2.42356590E+00 -6.56002800E-01
 -2.15023140E+00  2.44178820E+00 -2.13200910E+00 -2.31423210E+00  2.40534360E+00
 -2.29600980E+00  2.42356590E+00  2.42356590E+00  2.42356590E+00 -3.46223700E-01
 -2.15023140E+00 -6.56002800E-01 -3.28001400E-01 -2.31423210E+00  2.40534360E+00
 -2.13200910E+00 -2.11378680E+00 -3.09779100E-01 -2.15023140E+00 -2.29600980E+00
  2.42356590E+00  2.42356590E+00 -2.13200910E+00  2.44178820E+00 -3.09779100E-01
 -2.15023140E+00  2.44178820E+00  2.42356590E+00  2.42356590E+00 -3.28001400E-01
 -2.13200910E+00  2.44178820E+00 -3.46223700E-01 -2.11378680E+00  2.42356590E+00
 -6.56002800E-01 -2.15023140E+00  2.44178820E+00 -2.13200910E+00 -2.31423210E+00
  2.40534360E+00 -2.29600980E+00  2.42356590E+00  2.42356590E+00  2.42356590E+00
 -3.46223700E-01 -2.15023140E+00 -6.56002800E-01 -3.28001400E-01 -2.31423210E+00
  2.40534360E+00 -2.13200910E+00 -2.11378680E+00 -3.09779100E-01 -2.15023140E+00
 -2.29600980E+00  2.42356590E+00  2.42356590E+00 -2.13200910E+00  2.44178820E+00
 -3.09779100E-01 -2.15023140E+00  2.44178820E+00  2.42356590E+00  2.42356590E+00
 -3.28001400E-01 -2.13200910E+00  2.44178820E+00 -3.46223700E-01 -2.11378680E+00
  2.42356590E+00 -6.56002800E-01 -2.15023140E+00  2.44178820E+00 -2.13200910E+00
 -2.31423210E+00  2.40534360E+00 -2.29600980E+00  2.42356590E+00  2.42356590E+00
  2.42356590E+00 -3.46223700E-01 -2.15023140E+00 -6.56002800E-01 -3.28001400E-01
 -2.31423210E+00  2.40534360E+00 -2.13200910E+00 -2.11378680E+00 -3.09779100E-01
 -2.15023140E+00 -2.29600980E+00  2.42356590E+00  2.42356590E+00 -2.13200910E+00
  2.44178820E+00 -3.09779100E-01 -2.15023140E+00  2.44178820E+00  2.42356590E+00
  2.42356590E+00 -3.28001400E-01 -2.13200910E+00  2.44178820E+00 -3.46223700E-01
 -2.11378680E+00  2.42356590E+00 -6.56002800E-01 -2.15023140E+00  2.44178820E+00
 -2.13200910E+00 -2.31423210E+00  2.40534360E+00 -2.29600980E+00  2.42356590E+00
  2.42356590E+00  2.42356590E+00 -3.46223700E-01 -2.15023140E+00 -6.56002800E-01
 -3.28001400E-01 -2.31423210E+00  2.40534360E+00 -2.13200910E+00 -2.11378680E+00
 -3.09779100E-01 -2.15023140E+00 -2.29600980E+00  2.42356590E+00  2.42356590E+00
 -2.13200910E+00  2.44178820E+00 -3.09779100E-01 -2.15023140E+00  2.44178820E+00
  2.42356590E+00  2.42356590E+00 -3.28001400E-01 -2.13200910E+00  2.44178820E+00
 -3.46223700E-01 -2.11378680E+00  2.42356590E+00 -6.56002800E-01 -2.15023140E+00
  2.44178820E+00 -2.13200910E+00 -2.31423210E+00  2.40534360E+00 -2.29600980E+00
  2.42356590E+00  2.42356590E+00  2.42356590E+00 -3.46223700E-01 -2.15023140E+00
 -6.56002800E-01 -3.28001400E-01 -2.31423210E+00  2.40534360E+00 -2.13200910E+00
 -2.11378680E+00 -3.09779100E-01 -2.15023140E+00 -2.29600980E+00  2.42356590E+00
  2.42356590E+00 -2.13200910E+00  2.44178820E+00 -3.09779100E-01 -2.15023140E+00
  2.44178820E+00  2.42356590E+00  2.42356590E+00 -3.28001400E-01 -2.13200910E+00
  2.44178820E+00 -3.46223700E-01 -2.11378680E+00  2.42356590E+00 -6.56002800E-01
 -2.15023140E+00  2.44178820E+00 -2.13200910E+00 -2.31423210E+00  2.40534360E+00
 -2.29600980E+00  2.42356590E+00  2.42356590E+00  2.42356590E+00 -3.46223700E-01
 -2.15023140E+00 -6.56002800E-01 -3.28001400E-01 -2.31423210E+00  2.40534360E+00
 -2.13200910E+00 -2.11378680E+00 -3.09779100E-01 -2.15023140E+00 -2.29600980E+00
  2.42356590E+00  2.42356590E+00 -2.13200910E+00  2.44178820E+00 -3.09779100E-01
 -2.15023140E+00  2.44178820E+00  2.42356590E+00  2.42356590E+00 -3.28001400E-01
 -2.13200910E+00  2.44178820E+00 -3.46223700E-01 -2.11378680E+00  2.42356590E+00
 -6.56002800E-01 -2.15023140E+00  2.44178820E+00 -2.13200910E+00 -2.31423210E+00
  2.40534360E+00 -2.29600980E+00  2.42356590E+00  2.42356590E+00  2.42356590E+00
 -3.46223700E-01 -2.15023140E+00 -6.56002800E-01 -3.28001400E-01 -2.31423210E+00
  2.40534360E+00 -2.13200910E+00 -2.11378680E+00 -3.09779100E-01 -2.15023140E+00
 -2.29600980E+00  2.42356590E+00  2.42356590E+00 -2.13200910E+00  2.44178820E+00
 -3.09779100E-01 -2.15023140E+00  2.44178820E+00  2.42356590E+00  2.42356590E+00
 -3.28001400E-01 -2.13200910E+00  2.44178820E+00 -3.46223700E-01 -2.11378680E+00
  2.42356590E+00 -6.56002800E-01 -2.15023140E+00  2.44178820E+00 -2.13200910E+00
 -2.31423210E+00  2.40534360E+00 -2.29600980E+00  2.42356590E+00  2.42356590E+00
  2.42356590E+00 -3.46223700E-01 -2.15023140E+00 -6.56002800E-01 -3.28001400E-01
 -2.31423210E+00  2.40534360E+00 -2.13200910E+00 -2.11378680E+00 -3.09779100E-01
 -2.15023140E+00 -2.29600980E+00  2.42356590E+00  2.42356590E+00 -2.13200910E+00
  2.44178820E+00 -3.09779100E-01 -2.15023140E+00  2.44178820E+00  2.42356590E+00
  2.42356590E+00 -3.28001400E-01 -2.13200910E+00  2.44178820E+00 -3.46223700E-01
 -2.11378680E+00  2.42356590E+00 -6.56002800E-01 -2.15023140E+00  2.44178820E+00
 -2.13200910E+00 -2.31423210E+00  2.40534360E+00 -2.29600980E+00  2.42356590E+00
  2.42356590E+00  2.42356590E+00 -3.46223700E-01 -2.15023140E+00 -6.56002800E-01
 -3.28001400E-01 -2.31423210E+00  2.40534360E+00 -2.13200910E+00 -2.11378680E+00
 -3.09779100E-01 -2.15023140E+00 -2.29600980E+00  2.42356590E+00  2.42356590E+00
 -2.13200910E+00  2.44178820E+00 -3.09779100E-01 -2.15023140E+00  2.44178820E+00
  2.42356590E+00  2.42356590E+00 -3.28001400E-01 -2.13200910E+00  2.44178820E+00
 -3.46223700E-01 -2.11378680E+00  2.42356590E+00 -6.56002800E-01 -2.15023140E+00
  2.44178820E+00 -2.13200910E+00 -2.31423210E+00  2.40534360E+00 -2.29600980E+00
  2.42356590E+00  2.42356590E+00  2.42356590E+00 -3.46223700E-01 -2.15023140E+00
 -6.56002800E-01 -3.28001400E-01 -2.31423210E+00  2.40534360E+00 -2.13200910E+00
 -2.11378680E+00 -3.09779100E-01 -2.15023140E+00 -2.29600980E+00  2.42356590E+00
  2.42356590E+00 -2.13200910E+00  2.44178820E+00 -3.09779100E-01 -2.15023140E+00
  2.44178820E+00  2.42356590E+00  2.42356590E+00 -3.28001400E-01 -2.13200910E+00
  2.44178820E+00 -3.46223700E-01 -2.11378680E+00  2.42356590E+00 -6.56002800E-01
 -2.15023140E+00  2.44178820E+00 -2.13200910E+00 -2.31423210E+00  2.40534360E+00
 -2.29600980E+00  2.42356590E+00  2.42356590E+00  2.42356590E+00 -3.46223700E-01
 -2.15023140E+00 -6.56002800E-01 -3.28001400E-01 -2.31423210E+00  2.40534360E+00
 -2.13200910E+00 -2.11378680E+00 -3.09779100E-01 -2.15023140E+00 -2.29600980E+00
  2.42356590E+00  2.42356590E+00 -2.13200910E+00  2.44178820E+00 -3.09779100E-01
 -2.15023140E+00  2.44178820E+00  2.42356590E+00  2.42356590E+00 -3.28001400E-01
 -2.13200910E+00  2.44178820E+00 -3.46223700E-01 -2.11378680E+00  2.42356590E+00
 -6.56002800E-01 -2.15023140E+00  2.44178820E+00 -2.13200910E+00 -2.31423210E+00
  2.40534360E+00 -2.29600980E+00  2.42356590E+00  2.42356590E+00  2.42356590E+00
 -3.46223700E-01 -2.15023140E+00 -6.56002800E-01 -3.28001400E-01 -2.31423210E+00
  2.40534360E+00 -2.13200910E+00 -2.11378680E+00 -3.09779100E-01 -2.15023140E+00
 -2.29600980E+00  2.42356590E+00  2.42356590E+00 -2.13200910E+00  2.44178820E+00
 -3.09779100E-01 -2.15023140E+00  2.44178820E+00  2.42356590E+00  2.42356590E+00
 -3.28001400E-01 -2.13200910E+00  2.44178820E+00 -3.46223700E-01 -2.11378680E+00
  2.42356590E+00 -6.56002800E-01 -2.15023140E+00  2.44178820E+00 -2.13200910E+00
 -2.31423210E+00  2.40534360E+00 -2.29600980E+00  2.42356590E+00  2.42356590E+00
  2.42356590E+00 -3.46223700E-01 -2.15023140E+00 -6.56002800E-01 -3.28001400E-01
 -2.31423210E+00  2.40534360E+00 -2.13200910E+00 -2.11378680E+00 -3.09779100E-01
 -2.15023140E+00 -2.29600980E+00  2.42356590E+00  2.42356590E+00 -2.13200910E+00
  2.44178820E+00 -3.09779100E-01 -2.15023140E+00  2.44178820E+00  2.42356590E+00
  2.42356590E+00 -3.28001400E-01 -2.13200910E+00  2.44178820E+00 -3.46223700E-01
 -2.11378680E+00  2.42356590E+00 -6.56002800E-01 -2.15023140E+00  2.44178820E+00
 -2.13200910E+00 -2.31423210E+00  2.40534360E+00 -2.29600980E+00  2.42356590E+00
  2.42356590E+00  2.42356590E+00 -3.46223700E-01 -2.15023140E+00 -6.56002800E-01
 -3.28001400E-01 -2.31423210E+00  2.40534360E+00 -2.13200910E+00 -2.11378680E+00
 -3.09779100E-01 -2.15023140E+00 -2.29600980E+00  2.42356590E+00  2.42356590E+00
 -2.13200910E+00  2.44178820E+00 -3.09779100E-01 -2.15023140E+00  2.44178820E+00
  2.42356590E+00  2.42356590E+00 -3.28001400E-01 -2.13200910E+00  2.44178820E+00
 -3.46223700E-01 -2.11378680E+00  2.42356590E+00 -6.56002800E-01 -2.15023140E+00
  2.44178820E+00 -2.13200910E+00 -2.31423210E+00  2.40534360E+00 -2.29600980E+00
  2.42356590E+00  2.42356590E+00  2.42356590E+00 -3.46223700E-01 -2.15023140E+00
 -6.56002800E-01 -3.28001400E-01 -2.31423210E+00  2.40534360E+00 -2.13200910E+00
 -2.11378680E+00 -3.09779100E-01 -2.15023140E+00 -2.29600980E+00  2.42356590E+00
  2.42356590E+00 -2.13200910E+00  2.44178820E+00 -3.09779100E-01 -2.15023140E+00
  2.44178820E+00  2.42356590E+00  2.42356590E+00 -3.28001400E-01 -2.13200910E+00
  2.44178820E+00 -3.46223700E-01 -2.11378680E+00  2.42356590E+00 -6.56002800E-01
 -2.15023140E+00  2.44178820E+00 -2.13200910E+00 -2.31423210E+00  2.40534360E+00
 -2.29600980E+00  2.42356590E+00  2.42356590E+00  2.42356590E+00 -3.46223700E-01
 -2.15023140E+00 -6.56002800E-01 -3.28001400E-01 -2.31423210E+00  2.40534360E+00
 -2.13200910E+00 -2.11378680E+00 -3.09779100E-01 -2.15023140E+00 -2.29600980E+00
  2.42356590E+00  2.42356590E+00 -2.13200910E+00  2.44178820E+00 -3.09779100E-01
 -2.15023140E+00  2.44178820E+00  2.42356590E+00  2.42356590E+00 -3.28001400E-01
 -2.13200910E+00  2.44178820E+00 -3.46223700E-01 -2.11378680E+00  2.42356590E+00
 -6.56002800E-01 -2.15023140E+00  2.44178820E+00 -2.13200910E+00 -2.31423210E+00
  2.40534360E+00 -2.29600980E+00  2.42356590E+00  2.42356590E+00  2.42356590E+00
 -3.46223700E-01 -2.15023140E+00 -6.56002800E-01 -3.28001400E-01 -2.31423210E+00
  2.40534360E+00 -2.13200910E+00 -2.11378680E+00 -3.09779100E-01 -2.15023140E+00
 -2.29600980E+00  2.42356590E+00  2.42356590E+00 -2.13200910E+00  2.44178820E+00
 -3.09779100E-01 -2.15023140E+00  2.44178820E+00  2.42356590E+00  2.42356590E+00
 -3.28001400E-01 -2.13200910E+00  2.44178820E+00 -3.46223700E-01 -2.11378680E+00
  2.42356590E+00 -6.56002800E-01 -2.15023140E+00  2.44178820E+00 -2.13200910E+00
 -2.31423210E+00  2.40534360E+00 -2.29600980E+00  2.42356590E+00  2.42356590E+00
  2.42356590E+00 -3.46223700E-01 -2.15023140E+00 -6.56002800E-01 -3.28001400E-01
 -2.31423210E+00  2.40534360E+00 -2.13200910E+00 -2.11378680E+00 -3.09779100E-01
 -2.15023140E+00 -2.29600980E+00  2.42356590E+00  2.42356590E+00 -2.13200910E+00
  2.44178820E+00 -3.09779100E-01 -2.15023140E+00  2.44178820E+00  2.42356590E+00
  2.42356590E+00 -3.28001400E-01 -2.13200910E+00  2.44178820E+00 -3.46223700E-01
 -2.11378680E+00  2.42356590E+00 -6.56002800E-01 -2.15023140E+00  2.44178820E+00
 -2.13200910E+00 -2.31423210E+00  2.40534360E+00 -2.29600980E+00  2.42356590E+00
  2.42356590E+00  2.42356590E+00 -3.46223700E-01 -2.15023140E+00 -6.56002800E-01
 -3.28001400E-01 -2.31423210E+00  2.40534360E+00 -2.13200910E+00 -2.11378680E+00
 -3.09779100E-01 -2.15023140E+00 -2.29600980E+00  2.42356590E+00  2.42356590E+00
 -2.13200910E+00  2.44178820E+00 -3.09779100E-01 -2.15023140E+00  2.44178820E+00
  2.42356590E+00  2.42356590E+00 -3.28001400E-01 -2.13200910E+00  2.44178820E+00
 -3.46223700E-01 -2.11378680E+00  2.42356590E+00 -6.56002800E-01 -2.15023140E+00
  2.44178820E+00 -2.13200910E+00 -2.31423210E+00  2.40534360E+00 -2.29600980E+00
  2.42356590E+00  2.42356590E+00  2.42356590E+00 -3.46223700E-01 -2.15023140E+00
 -6.56002800E-01 -3.28001400E-01 -2.31423210E+00  2.40534360E+00 -2.13200910E+00
 -2.11378680E+00 -3.09779100E-01 -2.15023140E+00 -2.29600980E+00  2.42356590E+00
  2.42356590E+00 -2.13200910E+00  2.44178820E+00 -3.09779100E-01 -2.15023140E+00
  2.44178820E+00  2.42356590E+00  2.42356590E+00 -3.28001400E-01 -2.13200910E+00
  2.44178820E+00 -3.46223700E-01 -2.11378680E+00  2.42356590E+00 -6.56002800E-01
 -2.15023140E+00  2.44178820E+00 -2.13200910E+00 -2.31423210E+00  2.40534360E+00
 -2.29600980E+00  2.42356590E+00  2.42356590E+00  2.42356590E+00 -3.46223700E-01
 -2.15023140E+00 -6.56002800E-01 -3.28001400E-01 -2.31423210E+00  2.40534360E+00
 -2.13200910E+00 -2.11378680E+00 -3.09779100E-01 -2.15023140E+00 -2.29600980E+00
  2.42356590E+00  2.42356590E+00 -2.13200910E+00  2.44178820E+00 -3.09779100E-01
 -2.15023140E+00  2.44178820E+00  2.42356590E+00  2.42356590E+00 -3.28001400E-01
 -2.13200910E+00  2.44178820E+00 -3.46223700E-01 -2.11378680E+00  2.42356590E+00
 -6.56002800E-01 -2.15023140E+00  2.44178820E+00 -2.13200910E+00 -2.31423210E+00
  2.40534360E+00 -2.29600980E+00  2.42356590E+00  2.42356590E+00  2.42356590E+00
 -3.46223700E-01 -2.15023140E+00 -6.56002800E-01 -3.28001400E-01 -2.31423210E+00
  2.40534360E+00 -2.13200910E+00 -2.11378680E+00 -3.09779100E-01 -2.15023140E+00
 -2.29600980E+00  2.42356590E+00  2.42356590E+00 -2.13200910E+00  2.44178820E+00
 -3.09779100E-01 -2.15023140E+00  2.44178820E+00  2.42356590E+00  2.42356590E+00
 -3.28001400E-01 -2.13200910E+00  2.44178820E+00 -3.46223700E-01 -2.11378680E+00
  2.42356590E+00 -6.56002800E-01 -2.15023140E+00  2.44178820E+00 -2.13200910E+00
 -2.31423210E+00  2.40534360E+00 -2.29600980E+00  2.42356590E+00  2.42356590E+00
  2.42356590E+00 -3.46223700E-01 -2.15023140E+00 -6.56002800E-01 -3.28001400E-01
 -2.31423210E+00  2.40534360E+00 -2.13200910E+00 -2.11378680E+00 -3.09779100E-01
 -2.15023140E+00 -2.29600980E+00  2.42356590E+00  2.42356590E+00 -2.13200910E+00
  2.44178820E+00 -3.09779100E-01 -2.15023140E+00  2.44178820E+00  2.42356590E+00
  2.42356590E+00 -3.28001400E-01 -2.13200910E+00  2.44178820E+00 -3.46223700E-01
 -2.11378680E+00  2.42356590E+00 -6.56002800E-01 -2.15023140E+00  2.44178820E+00
 -2.13200910E+00 -2.31423210E+00  2.40534360E+00 -2.29600980E+00  2.42356590E+00
  2.42356590E+00  2.42356590E+00 -3.46223700E-01 -2.15023140E+00 -6.56002800E-01
 -3.28001400E-01 -2.31423210E+00  2.40534360E+00 -2.13200910E+00 -2.11378680E+00
 -3.09779100E-01 -2.15023140E+00 -2.29600980E+00  2.42356590E+00  2.42356590E+00
 -2.13200910E+00  2.44178820E+00 -3.09779100E-01 -2.15023140E+00  2.44178820E+00
  2.42356590E+00  2.42356590E+00 -3.28001400E-01 -2.13200910E+00  2.44178820E+00
 -3.46223700E-01 -2.11378680E+00  2.42356590E+00 -6.56002800E-01 -2.15023140E+00
  2.44178820E+00 -2.13200910E+00 -2.31423210E+00  2.40534360E+00 -2.29600980E+00
  2.42356590E+00  2.42356590E+00  2.42356590E+00 -3.46223700E-01 -2.15023140E+00
 -6.56002800E-01 -3.28001400E-01 -2.31423210E+00  2.40534360E+00 -2.13200910E+00
 -2.11378680E+00 -3.09779100E-01 -2.15023140E+00 -2.29600980E+00  2.42356590E+00
  2.42356590E+00 -2.13200910E+00  2.44178820E+00 -3.09779100E-01 -2.15023140E+00
  2.44178820E+00  2.42356590E+00  2.42356590E+00 -3.28001400E-01 -2.13200910E+00
  2.44178820E+00 -3.46223700E-01 -2.11378680E+00  2.42356590E+00 -6.56002800E-01
 -2.15023140E+00  2.44178820E+00 -2.13200910E+00 -2.31423210E+00  2.40534360E+00
 -2.29600980E+00  2.42356590E+00  2.42356590E+00  2.42356590E+00 -3.46223700E-01
 -2.15023140E+00 -6.56002800E-01 -3.28001400E-01 -2.31423210E+00  2.40534360E+00
 -2.13200910E+00 -2.11378680E+00 -3.09779100E-01 -2.15023140E+00 -2.29600980E+00
  2.42356590E+00  2.42356590E+00 -2.13200910E+00  2.44178820E+00 -3.09779100E-01
 -2.15023140E+00  2.44178820E+00  2.42356590E+00  2.42356590E+00 -3.28001400E-01
 -2.13200910E+00  2.44178820E+00 -3.46223700E-01 -2.11378680E+00  2.42356590E+00
 -6.56002800E-01 -2.15023140E+00  2.44178820E+00 -2.13200910E+00 -2.31423210E+00
  2.40534360E+00 -2.29600980E+00  2.42356590E+00  2.42356590E+00  2.42356590E+00
 -3.46223700E-01 -2.15023140E+00 -6.56002800E-01 -3.28001400E-01 -2.31423210E+00
  2.40534360E+00 -2.13200910E+00 -2.11378680E+00 -3.09779100E-01 -2.15023140E+00
 -2.29600980E+00  2.42356590E+00  2.42356590E+00 -2.13200910E+00  2.44178820E+00
 -3.09779100E-01 -2.15023140E+00  2.44178820E+00  2.42356590E+00  2.42356590E+00
 -3.28001400E-01 -2.13200910E+00  2.44178820E+00 -3.46223700E-01 -2.11378680E+00
  2.42356590E+00 -6.56002800E-01 -2.15023140E+00  2.44178820E+00 -2.13200910E+00
 -2.31423210E+00  2.40534360E+00 -2.29600980E+00  2.42356590E+00  2.42356590E+00
  2.42356590E+00 -3.46223700E-01 -2.15023140E+00 -6.56002800E-01 -3.28001400E-01
 -2.31423210E+00  2.40534360E+00 -2.13200910E+00 -2.11378680E+00 -3.09779100E-01
 -2.15023140E+00 -2.29600980E+00  2.42356590E+00  2.42356590E+00 -2.13200910E+00
  2.44178820E+00 -3.09779100E-01 -2.15023140E+00  2.44178820E+00  2.42356590E+00
  2.42356590E+00 -3.28001400E-01 -2.13200910E+00  2.44178820E+00 -3.46223700E-01
 -2.11378680E+00  2.42356590E+00 -6.56002800E-01 -2.15023140E+00  2.44178820E+00
 -2.13200910E+00 -2.31423210E+00  2.40534360E+00 -2.29600980E+00  2.42356590E+00
  2.42356590E+00  2.42356590E+00 -3.46223700E-01 -2.15023140E+00 -6.56002800E-01
 -3.28001400E-01 -2.31423210E+00  2.40534360E+00 -2.13200910E+00 -2.11378680E+00
 -3.09779100E-01 -2.15023140E+00 -2.29600980E+00  2.42356590E+00  2.42356590E+00
 -2.13200910E+00  2.44178820E+00 -3.09779100E-01 -2.15023140E+00  2.44178820E+00
  2.42356590E+00  2.42356590E+00 -3.28001400E-01 -2.13200910E+00  2.44178820E+00
 -3.46223700E-01 -2.11378680E+00  2.42356590E+00 -6.56002800E-01 -2.15023140E+00
  2.44178820E+00 -2.13200910E+00 -2.31423210E+00  2.40534360E+00 -2.29600980E+00
  2.42356590E+00  2.42356590E+00  2.42356590E+00 -3.46223700E-01 -2.15023140E+00
 -6.56002800E-01 -3.28001400E-01 -2.31423210E+00  2.40534360E+00 -2.13200910E+00
 -2.11378680E+00 -3.09779100E-01 -2.15023140E+00 -2.29600980E+00  2.42356590E+00
  2.42356590E+00 -2.13200910E+00  2.44178820E+00 -3.09779100E-01 -2.15023140E+00
  2.44178820E+00  2.42356590E+00  2.42356590E+00 -3.28001400E-01 -2.13200910E+00
  2.44178820E+00 -3.46223700E-01 -2.11378680E+00  2.42356590E+00 -6.56002800E-01
 -2.15023140E+00  2.44178820E+00 -2.13200910E+00 -2.31423210E+00  2.40534360E+00
 -2.29600980E+00  2.42356590E+00  2.42356590E+00  2.42356590E+00 -3.46223700E-01
 -2.15023140E+00 -6.56002800E-01 -3.28001400E-01 -2.31423210E+00  2.40534360E+00
 -2.13200910E+00 -2.11378680E+00 -3.09779100E-01 -2.15023140E+00 -2.29600980E+00
  2.42356590E+00  2.42356590E+00 -2.13200910E+00  2.44178820E+00 -3.09779100E-01
 -2.15023140E+00  2.44178820E+00  2.42356590E+00  2.42356590E+00 -3.28001400E-01
 -2.13200910E+00  2.44178820E+00 -3.46223700E-01 -2.11378680E+00  2.42356590E+00
 -6.56002800E-01 -2.15023140E+00  2.44178820E+00 -2.13200910E+00 -2.31423210E+00
  2.40534360E+00 -2.29600980E+00  2.42356590E+00  2.42356590E+00  2.42356590E+00
 -3.46223700E-01 -2.15023140E+00 -6.56002800E-01 -3.28001400E-01 -2.31423210E+00
  2.40534360E+00 -2.13200910E+00 -2.11378680E+00 -3.09779100E-01 -2.15023140E+00
 -2.29600980E+00  2.42356590E+00  2.42356590E+00 -2.13200910E+00  2.44178820E+00
 -3.09779100E-01 -2.15023140E+00  2.44178820E+00  2.42356590E+00  2.42356590E+00
 -3.28001400E-01 -2.13200910E+00  2.44178820E+00 -3.46223700E-01 -2.11378680E+00
  2.42356590E+00 -6.56002800E-01 -2.15023140E+00  2.44178820E+00 -2.13200910E+00
 -2.31423210E+00  2.40534360E+00 -2.29600980E+00  2.42356590E+00  2.42356590E+00
  2.42356590E+00 -3.46223700E-01 -2.15023140E+00 -6.56002800E-01 -3.28001400E-01
 -2.31423210E+00  2.40534360E+00 -2.13200910E+00 -2.11378680E+00 -3.09779100E-01
 -2.15023140E+00 -2.29600980E+00  2.42356590E+00  2.42356590E+00 -2.13200910E+00
  2.44178820E+00 -3.09779100E-01 -2.15023140E+00  2.44178820E+00  2.42356590E+00
  2.42356590E+00 -3.28001400E-01 -2.13200910E+00  2.44178820E+00 -3.46223700E-01
 -2.11378680E+00  2.42356590E+00 -6.56002800E-01 -2.15023140E+00  2.44178820E+00
 -2.13200910E+00 -2.31423210E+00  2.40534360E+00 -2.29600980E+00  2.42356590E+00
  2.42356590E+00  2.42356590E+00 -3.46223700E-01 -2.15023140E+00 -6.56002800E-01
 -3.28001400E-01 -2.31423210E+00  2.40534360E+00 -2.13200910E+00 -2.11378680E+00
 -3.09779100E-01 -2.15023140E+00 -2.29600980E+00  2.42356590E+00  2.42356590E+00
 -2.13200910E+00  2.44178820E+00 -3.09779100E-01 -2.15023140E+00  2.44178820E+00
  2.42356590E+00  2.42356590E+00 -3.28001400E-01 -2.13200910E+00  2.44178820E+00
 -3.46223700E-01 -2.11378680E+00  2.42356590E+00 -6.56002800E-01 -2.15023140E+00
  2.44178820E+00 -2.13200910E+00 -2.31423210E+00  2.40534360E+00 -2.29600980E+00
  2.42356590E+00  2.42356590E+00  2.42356590E+00 -3.46223700E-01 -2.15023140E+00
 -6.56002800E-01 -3.28001400E-01 -2.31423210E+00  2.40534360E+00 -2.13200910E+00
 -2.11378680E+00 -3.09779100E-01 -2.15023140E+00 -2.29600980E+00  2.42356590E+00
  2.42356590E+00 -2.13200910E+00  2.44178820E+00 -3.09779100E-01 -2.15023140E+00
  2.44178820E+00  2.42356590E+00  2.42356590E+00 -3.28001400E-01 -2.13200910E+00
  2.44178820E+00 -3.46223700E-01 -2.11378680E+00  2.42356590E+00 -6.56002800E-01
 -2.15023140E+00  2.44178820E+00 -2.13200910E+00 -2.31423210E+00  2.40534360E+00
 -2.29600980E+00  2.42356590E+00  2.42356590E+00  2.42356590E+00 -3.46223700E-01
 -2.15023140E+00 -6.56002800E-01 -3.28001400E-01 -2.31423210E+00  2.40534360E+00
 -2.13200910E+00 -2.11378680E+00 -3.09779100E-01 -2.15023140E+00 -2.29600980E+00
  2.42356590E+00  2.42356590E+00 -2.13200910E+00  2.44178820E+00 -3.09779100E-01
 -2.15023140E+00  2.44178820E+00  2.42356590E+00  2.42356590E+00 -3.28001400E-01
 -2.13200910E+00  2.44178820E+00 -3.46223700E-01 -2.11378680E+00  2.42356590E+00
 -6.56002800E-01 -2.15023140E+00  2.44178820E+00 -2.13200910E+00 -2.31423210E+00
  2.40534360E+00 -2.29600980E+00  2.42356590E+00  2.42356590E+00  2.42356590E+00
 -3.46223700E-01 -2.15023140E+00 -6.56002800E-01 -3.28001400E-01 -2.31423210E+00
  2.40534360E+00 -2.13200910E+00 -2.11378680E+00 -3.09779100E-01 -2.15023140E+00
 -2.29600980E+00  2.42356590E+00  2.42356590E+00 -2.13200910E+00  2.44178820E+00
 -3.09779100E-01 -2.15023140E+00  2.44178820E+00  2.42356590E+00  2.42356590E+00
 -3.28001400E-01 -2.13200910E+00  2.44178820E+00 -3.46223700E-01 -2.11378680E+00
  2.42356590E+00 -6.56002800E-01 -2.15023140E+00  2.44178820E+00 -2.13200910E+00
 -2.31423210E+00  2.40534360E+00 -2.29600980E+00  2.42356590E+00  2.42356590E+00
  2.42356590E+00 -3.46223700E-01 -2.15023140E+00 -6.56002800E-01 -3.28001400E-01
 -2.31423210E+00  2.40534360E+00 -2.13200910E+00 -2.11378680E+00 -3.09779100E-01
 -2.15023140E+00 -2.29600980E+00  2.42356590E+00  2.42356590E+00 -2.13200910E+00
  2.44178820E+00 -3.09779100E-01 -2.15023140E+00  2.44178820E+00  2.42356590E+00
  2.42356590E+00 -3.28001400E-01 -2.13200910E+00  2.44178820E+00 -3.46223700E-01
 -2.11378680E+00  2.42356590E+00 -6.56002800E-01 -2.15023140E+00  2.44178820E+00
 -2.13200910E+00 -2.31423210E+00  2.40534360E+00 -2.29600980E+00  2.42356590E+00
  2.42356590E+00  2.42356590E+00 -3.46223700E-01 -2.15023140E+00 -6.56002800E-01
 -3.28001400E-01 -2.31423210E+00  2.40534360E+00 -2.13200910E+00 -2.11378680E+00
 -3.09779100E-01 -2.15023140E+00 -2.29600980E+00  2.42356590E+00  2.42356590E+00
 -2.13200910E+00  2.44178820E+00 -3.09779100E-01 -2.15023140E+00  2.44178820E+00
  2.42356590E+00  2.42356590E+00 -3.28001400E-01 -2.13200910E+00  2.44178820E+00
 -3.46223700E-01 -2.11378680E+00  2.42356590E+00 -6.56002800E-01 -2.15023140E+00
  2.44178820E+00 -2.13200910E+00 -2.31423210E+00  2.40534360E+00 -2.29600980E+00
  2.42356590E+00  2.42356590E+00  2.42356590E+00 -3.46223700E-01 -2.15023140E+00
 -6.56002800E-01 -3.28001400E-01 -2.31423210E+00  2.40534360E+00 -2.13200910E+00
 -2.11378680E+00 -3.09779100E-01 -2.15023140E+00 -2.29600980E+00  2.42356590E+00
  2.42356590E+00 -2.13200910E+00  2.44178820E+00 -3.09779100E-01 -2.15023140E+00
  2.44178820E+00  2.42356590E+00  2.42356590E+00 -3.28001400E-01 -2.13200910E+00
  2.44178820E+00 -3.46223700E-01 -2.11378680E+00  2.42356590E+00 -6.56002800E-01
 -2.15023140E+00  2.44178820E+00 -2.13200910E+00 -2.31423210E+00  2.40534360E+00
 -2.29600980E+00  2.42356590E+00  2.42356590E+00  2.42356590E+00 -3.46223700E-01
 -2.15023140E+00 -6.56002800E-01 -3.28001400E-01 -2.31423210E+00  2.40534360E+00
 -2.13200910E+00 -2.11378680E+00 -3.09779100E-01 -2.15023140E+00 -2.29600980E+00
  2.42356590E+00  2.42356590E+00 -2.13200910E+00  2.44178820E+00 -3.09779100E-01
 -2.15023140E+00  2.44178820E+00  2.42356590E+00  2.42356590E+00 -3.28001400E-01
 -2.13200910E+00  2.44178820E+00 -3.46223700E-01 -2.11378680E+00  2.42356590E+00
 -6.56002800E-01 -2.15023140E+00  2.44178820E+00 -2.13200910E+00 -2.31423210E+00
  2.40534360E+00 -2.29600980E+00  2.42356590E+00  2.42356590E+00  2.42356590E+00
 -3.46223700E-01 -2.15023140E+00 -6.56002800E-01 -3.28001400E-01 -2.31423210E+00
  2.40534360E+00 -2.13200910E+00 -2.11378680E+00 -3.09779100E-01 -2.15023140E+00
 -2.29600980E+00  2.42356590E+00  2.42356590E+00 -2.13200910E+00  2.44178820E+00
 -3.09779100E-01 -2.15023140E+00  2.44178820E+00  2.42356590E+00  2.42356590E+00
 -3.28001400E-01 -2.13200910E+00  2.44178820E+00 -3.46223700E-01 -2.11378680E+00
  2.42356590E+00 -6.56002800E-01 -2.15023140E+00  2.44178820E+00 -2.13200910E+00
 -2.31423210E+00  2.40534360E+00 -2.29600980E+00  2.42356590E+00  2.42356590E+00
  2.42356590E+00 -3.46223700E-01 -2.15023140E+00 -6.56002800E-01 -3.28001400E-01
 -2.31423210E+00  2.40534360E+00 -2.13200910E+00 -2.11378680E+00 -3.09779100E-01
 -2.15023140E+00 -2.29600980E+00  2.42356590E+00  2.42356590E+00 -2.13200910E+00
  2.44178820E+00 -3.09779100E-01 -2.15023140E+00  2.44178820E+00  2.42356590E+00
  2.42356590E+00 -3.28001400E-01 -2.13200910E+00  2.44178820E+00 -3.46223700E-01
 -2.11378680E+00  2.42356590E+00 -6.56002800E-01 -2.15023140E+00  2.44178820E+00
 -2.13200910E+00 -2.31423210E+00  2.40534360E+00 -2.29600980E+00  2.42356590E+00
  2.42356590E+00  2.42356590E+00 -3.46223700E-01 -2.15023140E+00 -6.56002800E-01
 -3.28001400E-01 -2.31423210E+00  2.40534360E+00 -2.13200910E+00 -2.11378680E+00
 -3.09779100E-01 -2.15023140E+00 -2.29600980E+00  2.42356590E+00  2.42356590E+00
 -2.13200910E+00  2.44178820E+00 -3.09779100E-01 -2.15023140E+00  2.44178820E+00
  2.42356590E+00  2.42356590E+00 -3.28001400E-01 -2.13200910E+00  2.44178820E+00
 -3.46223700E-01 -2.11378680E+00  2.42356590E+00 -6.56002800E-01 -2.15023140E+00
  2.44178820E+00 -2.13200910E+00 -2.31423210E+00  2.40534360E+00 -2.29600980E+00
  2.42356590E+00  2.42356590E+00  2.42356590E+00 -3.46223700E-01 -2.15023140E+00
 -6.56002800E-01 -3.28001400E-01 -2.31423210E+00  2.40534360E+00 -2.13200910E+00
 -2.11378680E+00 -3.09779100E-01 -2.15023140E+00 -2.29600980E+00  2.42356590E+00
  2.42356590E+00 -2.13200910E+00  2.44178820E+00 -3.09779100E-01 -2.15023140E+00
  2.44178820E+00  2.42356590E+00  2.42356590E+00 -3.28001400E-01 -2.13200910E+00
  2.44178820E+00 -3.46223700E-01 -2.11378680E+00  2.42356590E+00 -6.56002800E-01
 -2.15023140E+00  2.44178820E+00 -2.13200910E+00 -2.31423210E+00  2.40534360E+00
 -2.29600980E+00  2.42356590E+00  2.42356590E+00  2.42356590E+00 -3.46223700E-01
 -2.15023140E+00 -6.56002800E-01 -3.28001400E-01 -2.31423210E+00  2.40534360E+00
 -2.13200910E+00 -2.11378680E+00 -3.09779100E-01 -2.15023140E+00 -2.29600980E+00
  2.42356590E+00  2.42356590E+00 -2.13200910E+00  2.44178820E+00 -3.09779100E-01
 -2.15023140E+00  2.44178820E+00  2.42356590E+00  2.42356590E+00 -3.28001400E-01
 -2.13200910E+00  2.44178820E+00 -3.46223700E-01 -2.11378680E+00  2.42356590E+00
 -6.56002800E-01 -2.15023140E+00  2.44178820E+00 -2.13200910E+00 -2.31423210E+00
  2.40534360E+00 -2.29600980E+00  2.42356590E+00  2.42356590E+00  2.42356590E+00
 -3.46223700E-01 -2.15023140E+00 -6.56002800E-01 -3.28001400E-01 -2.31423210E+00
  2.40534360E+00 -2.13200910E+00 -2.11378680E+00 -3.09779100E-01 -2.15023140E+00
 -2.29600980E+00  2.42356590E+00  2.42356590E+00 -2.13200910E+00  2.44178820E+00
 -3.09779100E-01 -2.15023140E+00  2.44178820E+00  2.42356590E+00  2.42356590E+00
 -3.28001400E-01 -2.13200910E+00  2.44178820E+00 -3.46223700E-01 -2.11378680E+00
  2.42356590E+00 -6.56002800E-01 -2.15023140E+00  2.44178820E+00 -2.13200910E+00
 -2.31423210E+00  2.40534360E+00 -2.29600980E+00  2.42356590E+00  2.42356590E+00
  2.42356590E+00 -3.46223700E-01 -2.15023140E+00 -6.56002800E-01 -3.28001400E-01
 -2.31423210E+00  2.40534360E+00 -2.13200910E+00 -2.11378680E+00 -3.09779100E-01
 -2.15023140E+00 -2.29600980E+00  2.42356590E+00  2.42356590E+00 -2.13200910E+00
  2.44178820E+00 -3.09779100E-01 -2.15023140E+00  2.44178820E+00  2.42356590E+00
  2.42356590E+00 -3.28001400E-01 -2.13200910E+00  2.44178820E+00 -3.46223700E-01
 -2.11378680E+00  2.42356590E+00 -6.56002800E-01 -2.15023140E+00  2.44178820E+00
 -2.13200910E+00 -2.31423210E+00  2.40534360E+00 -2.29600980E+00  2.42356590E+00
  2.42356590E+00  2.42356590E+00 -3.46223700E-01 -2.15023140E+00 -6.56002800E-01
 -3.28001400E-01 -2.31423210E+00  2.40534360E+00 -2.13200910E+00 -2.11378680E+00
 -3.09779100E-01 -2.15023140E+00 -2.29600980E+00  2.42356590E+00  2.42356590E+00
 -2.13200910E+00  2.44178820E+00 -3.09779100E-01 -2.15023140E+00  2.44178820E+00
  2.42356590E+00  2.42356590E+00 -3.28001400E-01 -2.13200910E+00  2.44178820E+00
 -3.46223700E-01 -2.11378680E+00  2.42356590E+00 -6.56002800E-01 -2.15023140E+00
  2.44178820E+00 -2.13200910E+00 -2.31423210E+00  2.40534360E+00 -2.29600980E+00
  2.42356590E+00  2.42356590E+00  2.42356590E+00 -3.46223700E-01 -2.15023140E+00
 -6.56002800E-01 -3.28001400E-01 -2.31423210E+00  2.40534360E+00 -2.13200910E+00
 -2.11378680E+00 -3.09779100E-01 -2.15023140E+00 -2.29600980E+00  2.42356590E+00
  2.42356590E+00 -2.13200910E+00  2.44178820E+00 -3.09779100E-01 -2.15023140E+00
  2.44178820E+00  2.42356590E+00  2.42356590E+00 -3.28001400E-01 -2.13200910E+00
  2.44178820E+00 -3.46223700E-01 -2.11378680E+00  2.42356590E+00 -6.56002800E-01
 -2.15023140E+00  2.44178820E+00 -2.13200910E+00 -2.31423210E+00  2.40534360E+00
 -2.29600980E+00  2.42356590E+00  2.42356590E+00  2.42356590E+00 -3.46223700E-01
 -2.15023140E+00 -6.56002800E-01 -3.28001400E-01 -2.31423210E+00  2.40534360E+00
 -2.13200910E+00 -2.11378680E+00 -3.09779100E-01 -2.15023140E+00 -2.29600980E+00
  2.42356590E+00  2.42356590E+00 -2.13200910E+00  2.44178820E+00 -3.09779100E-01
 -2.15023140E+00  2.44178820E+00  2.42356590E+00  2.42356590E+00 -3.28001400E-01
 -2.13200910E+00  2.44178820E+00 -3.46223700E-01 -2.11378680E+00  2.42356590E+00
 -6.56002800E-01 -2.15023140E+00  2.44178820E+00 -2.13200910E+00 -2.31423210E+00
  2.40534360E+00 -2.29600980E+00  2.42356590E+00  2.42356590E+00  2.42356590E+00
 -3.46223700E-01 -2.15023140E+00 -6.56002800E-01 -3.28001400E-01 -2.31423210E+00
  2.40534360E+00 -2.13200910E+00 -2.11378680E+00 -3.09779100E-01 -2.15023140E+00
 -2.29600980E+00  2.42356590E+00  2.42356590E+00 -2.13200910E+00  2.44178820E+00
 -3.09779100E-01 -2.15023140E+00  2.44178820E+00  2.42356590E+00  2.42356590E+00
 -3.28001400E-01 -2.13200910E+00  2.44178820E+00 -3.46223700E-01 -2.11378680E+00
  2.42356590E+00 -6.56002800E-01 -2.15023140E+00  2.44178820E+00 -2.13200910E+00
 -2.31423210E+00  2.40534360E+00 -2.29600980E+00  2.42356590E+00  2.42356590E+00
  2.42356590E+00 -3.46223700E-01 -2.15023140E+00 -6.56002800E-01 -3.28001400E-01
 -2.31423210E+00  2.40534360E+00 -2.13200910E+00 -2.11378680E+00 -3.09779100E-01
 -2.15023140E+00 -2.29600980E+00  2.42356590E+00  2.42356590E+00 -2.13200910E+00
  2.44178820E+00 -3.09779100E-01 -2.15023140E+00  2.44178820E+00  2.42356590E+00
  2.42356590E+00 -3.28001400E-01 -2.13200910E+00  2.44178820E+00 -3.46223700E-01
 -2.11378680E+00  2.42356590E+00 -6.56002800E-01 -2.15023140E+00  2.44178820E+00
 -2.13200910E+00 -2.31423210E+00  2.40534360E+00 -2.29600980E+00  2.42356590E+00
  2.42356590E+00  2.42356590E+00 -3.46223700E-01 -2.15023140E+00 -6.56002800E-01
 -3.28001400E-01 -2.31423210E+00  2.40534360E+00 -2.13200910E+00 -2.11378680E+00
 -3.09779100E-01 -2.15023140E+00 -2.29600980E+00  2.42356590E+00  2.42356590E+00
 -2.13200910E+00  2.44178820E+00 -3.09779100E-01 -2.15023140E+00  2.44178820E+00
  2.42356590E+00  2.42356590E+00 -3.28001400E-01 -2.13200910E+00  2.44178820E+00
 -3.46223700E-01 -2.11378680E+00  2.42356590E+00 -6.56002800E-01 -2.15023140E+00
  2.44178820E+00 -2.13200910E+00 -2.31423210E+00  2.40534360E+00 -2.29600980E+00
  2.42356590E+00  2.42356590E+00  2.42356590E+00 -3.46223700E-01 -2.15023140E+00
 -6.56002800E-01 -3.28001400E-01 -2.31423210E+00  2.40534360E+00 -2.13200910E+00
 -2.11378680E+00 -3.09779100E-01 -2.15023140E+00 -2.29600980E+00  2.42356590E+00
  2.42356590E+00 -2.13200910E+00  2.44178820E+00 -3.09779100E-01 -2.15023140E+00
  2.44178820E+00  2.42356590E+00  2.42356590E+00 -3.28001400E-01 -2.13200910E+00
  2.44178820E+00 -3.46223700E-01 -2.11378680E+00  2.42356590E+00 -6.56002800E-01
 -2.15023140E+00  2.44178820E+00 -2.13200910E+00 -2.31423210E+00  2.40534360E+00
 -2.29600980E+00  2.42356590E+00  2.42356590E+00  2.42356590E+00 -3.46223700E-01
 -2.15023140E+00 -6.56002800E-01 -3.28001400E-01 -2.31423210E+00  2.40534360E+00
 -2.13200910E+00 -2.11378680E+00 -3.09779100E-01 -2.15023140E+00 -2.29600980E+00
  2.42356590E+00  2.42356590E+00 -2.13200910E+00  2.44178820E+00 -3.09779100E-01
 -2.15023140E+00  2.44178820E+00  2.42356590E+00  2.42356590E+00 -3.28001400E-01
 -2.13200910E+00  2.44178820E+00 -3.46223700E-01 -2.11378680E+00  2.42356590E+00
 -6.56002800E-01 -2.15023140E+00  2.44178820E+00 -2.13200910E+00 -2.31423210E+00
  2.40534360E+00 -2.29600980E+00  2.42356590E+00  2.42356590E+00  2.42356590E+00
 -3.46223700E-01 -2.15023140E+00 -6.56002800E-01 -3.28001400E-01 -2.31423210E+00
  2.40534360E+00 -2.13200910E+00 -2.11378680E+00 -3.09779100E-01 -2.15023140E+00
 -2.29600980E+00  2.42356590E+00  2.42356590E+00 -2.13200910E+00  2.44178820E+00
 -3.09779100E-01 -2.15023140E+00  2.44178820E+00  2.42356590E+00  2.42356590E+00
 -3.28001400E-01 -2.13200910E+00  2.44178820E+00 -3.46223700E-01 -2.11378680E+00
  2.42356590E+00 -6.56002800E-01 -2.15023140E+00  2.44178820E+00 -2.13200910E+00
 -2.31423210E+00  2.40534360E+00 -2.29600980E+00  2.42356590E+00  2.42356590E+00
  2.42356590E+00 -3.46223700E-01 -2.15023140E+00 -6.56002800E-01 -3.28001400E-01
 -2.31423210E+00  2.40534360E+00 -2.13200910E+00 -2.11378680E+00 -3.09779100E-01
 -2.15023140E+00 -2.29600980E+00  2.42356590E+00  2.42356590E+00 -2.13200910E+00
  2.44178820E+00 -3.09779100E-01 -2.15023140E+00  2.44178820E+00  2.42356590E+00
  2.42356590E+00 -3.28001400E-01 -2.13200910E+00  2.44178820E+00 -3.46223700E-01
 -2.11378680E+00  2.42356590E+00 -6.56002800E-01 -2.15023140E+00  2.44178820E+00
 -2.13200910E+00 -2.31423210E+00  2.40534360E+00 -2.29600980E+00  2.42356590E+00
  2.42356590E+00  2.42356590E+00 -3.46223700E-01 -2.15023140E+00 -6.56002800E-01
 -3.28001400E-01 -2.31423210E+00  2.40534360E+00 -2.13200910E+00 -2.11378680E+00
 -3.09779100E-01 -2.15023140E+00 -2.29600980E+00  2.42356590E+00  2.42356590E+00
 -2.13200910E+00  2.44178820E+00 -3.09779100E-01 -2.15023140E+00  2.44178820E+00
  2.42356590E+00  2.42356590E+00 -3.28001400E-01 -2.13200910E+00  2.44178820E+00
 -3.46223700E-01 -2.11378680E+00  2.42356590E+00 -6.56002800E-01 -2.15023140E+00
  2.44178820E+00 -2.13200910E+00 -2.31423210E+00  2.40534360E+00 -2.29600980E+00
  2.42356590E+00  2.42356590E+00  2.42356590E+00 -3.46223700E-01 -2.15023140E+00
 -6.56002800E-01 -3.28001400E-01 -2.31423210E+00  2.40534360E+00 -2.13200910E+00
 -2.11378680E+00 -3.09779100E-01 -2.15023140E+00 -2.29600980E+00  2.42356590E+00
  2.42356590E+00 -2.13200910E+00  2.44178820E+00 -3.09779100E-01 -2.15023140E+00
  2.44178820E+00  2.42356590E+00  2.42356590E+00 -3.28001400E-01 -2.13200910E+00
  2.44178820E+00 -3.46223700E-01 -2.11378680E+00  2.42356590E+00 -6.56002800E-01
 -2.15023140E+00  2.44178820E+00 -2.13200910E+00 -2.31423210E+00  2.40534360E+00
 -2.29600980E+00  2.42356590E+00  2.42356590E+00  2.42356590E+00 -3.46223700E-01
 -2.15023140E+00 -6.56002800E-01 -3.28001400E-01 -2.31423210E+00  2.40534360E+00
 -2.13200910E+00 -2.11378680E+00 -3.09779100E-01 -2.15023140E+00 -2.29600980E+00
  2.42356590E+00  2.42356590E+00 -2.13200910E+00  2.44178820E+00 -3.09779100E-01
 -2.15023140E+00  2.44178820E+00  2.42356590E+00  2.42356590E+00 -3.28001400E-01
 -2.13200910E+00  2.44178820E+00 -3.46223700E-01 -2.11378680E+00  2.42356590E+00
 -6.56002800E-01 -2.15023140E+00  2.44178820E+00 -2.13200910E+00 -2.31423210E+00
  2.40534360E+00 -2.29600980E+00  2.42356590E+00  2.42356590E+00  2.42356590E+00
 -3.46223700E-01 -2.15023140E+00 -6.56002800E-01 -3.28001400E-01 -2.31423210E+00
  2.40534360E+00 -2.13200910E+00 -2.11378680E+00 -3.09779100E-01 -2.15023140E+00
 -2.29600980E+00  2.42356590E+00  2.42356590E+00 -2.13200910E+00  2.44178820E+00
 -3.09779100E-01 -2.15023140E+00  2.44178820E+00  2.42356590E+00  2.42356590E+00
 -3.28001400E-01 -2.13200910E+00  2.44178820E+00 -3.46223700E-01 -2.11378680E+00
  2.42356590E+00 -6.56002800E-01 -2.15023140E+00  2.44178820E+00 -2.13200910E+00
 -2.31423210E+00  2.40534360E+00 -2.29600980E+00  2.42356590E+00  2.42356590E+00
  2.42356590E+00 -3.46223700E-01 -2.15023140E+00 -6.56002800E-01 -3.28001400E-01
 -2.31423210E+00  2.40534360E+00 -2.13200910E+00 -2.11378680E+00 -3.09779100E-01
 -2.15023140E+00 -2.29600980E+00  2.42356590E+00  2.42356590E+00 -2.13200910E+00
  2.44178820E+00 -3.09779100E-01 -2.15023140E+00  2.44178820E+00  2.42356590E+00
  2.42356590E+00 -3.28001400E-01 -2.13200910E+00  2.44178820E+00 -3.46223700E-01
 -2.11378680E+00  2.42356590E+00 -6.56002800E-01 -2.15023140E+00  2.44178820E+00
 -2.13200910E+00 -2.31423210E+00  2.40534360E+00 -2.29600980E+00  2.42356590E+00
  2.42356590E+00  2.42356590E+00 -3.46223700E-01 -2.15023140E+00 -6.56002800E-01
 -3.28001400E-01 -2.31423210E+00  2.40534360E+00 -2.13200910E+00 -2.11378680E+00
 -3.09779100E-01 -2.15023140E+00 -2.29600980E+00  2.42356590E+00  2.42356590E+00
 -2.13200910E+00  2.44178820E+00 -3.09779100E-01 -2.15023140E+00  2.44178820E+00
  2.42356590E+00  2.42356590E+00 -3.28001400E-01 -2.13200910E+00  2.44178820E+00
 -3.46223700E-01 -2.11378680E+00  2.42356590E+00 -6.56002800E-01 -2.15023140E+00
  2.44178820E+00 -2.13200910E+00 -2.31423210E+00  2.40534360E+00 -2.29600980E+00
  2.42356590E+00  2.42356590E+00  2.42356590E+00 -3.46223700E-01 -2.15023140E+00
 -6.56002800E-01 -3.28001400E-01 -2.31423210E+00  2.40534360E+00 -2.13200910E+00
 -2.11378680E+00 -3.09779100E-01 -2.15023140E+00 -2.29600980E+00  2.42356590E+00
  2.42356590E+00 -2.13200910E+00  2.44178820E+00 -3.09779100E-01 -2.15023140E+00
  2.44178820E+00  2.42356590E+00  2.42356590E+00 -3.28001400E-01 -2.13200910E+00
  2.44178820E+00 -3.46223700E-01 -2.11378680E+00  2.42356590E+00 -6.56002800E-01
 -2.15023140E+00  2.44178820E+00 -2.13200910E+00 -2.31423210E+00  2.40534360E+00
 -2.29600980E+00  2.42356590E+00  2.42356590E+00  2.42356590E+00 -3.46223700E-01
 -2.15023140E+00 -6.56002800E-01 -3.28001400E-01 -2.31423210E+00  2.40534360E+00
 -2.13200910E+00 -2.11378680E+00 -3.09779100E-01 -2.15023140E+00 -2.29600980E+00
  2.42356590E+00  2.42356590E+00 -2.13200910E+00  2.44178820E+00 -3.09779100E-01
 -2.15023140E+00  2.44178820E+00  2.42356590E+00  2.42356590E+00 -3.28001400E-01
 -2.13200910E+00  2.44178820E+00 -3.46223700E-01 -2.11378680E+00  2.42356590E+00
 -6.56002800E-01 -2.15023140E+00  2.44178820E+00 -2.13200910E+00 -2.31423210E+00
  2.40534360E+00 -2.29600980E+00  2.42356590E+00  2.42356590E+00  2.42356590E+00
 -3.46223700E-01 -2.15023140E+00 -6.56002800E-01 -3.28001400E-01 -2.31423210E+00
  2.40534360E+00 -2.13200910E+00 -2.11378680E+00 -3.09779100E-01 -2.15023140E+00
 -2.29600980E+00  2.42356590E+00  2.42356590E+00 -2.13200910E+00  2.44178820E+00
 -3.09779100E-01 -2.15023140E+00  2.44178820E+00  2.42356590E+00  2.42356590E+00
 -3.28001400E-01 -2.13200910E+00  2.44178820E+00 -3.46223700E-01 -2.11378680E+00
  2.42356590E+00 -6.56002800E-01 -2.15023140E+00  2.44178820E+00 -2.13200910E+00
 -2.31423210E+00  2.40534360E+00 -2.29600980E+00  2.42356590E+00  2.42356590E+00
  2.42356590E+00 -3.46223700E-01 -2.15023140E+00 -6.56002800E-01 -3.28001400E-01
 -2.31423210E+00  2.40534360E+00 -2.13200910E+00 -2.11378680E+00 -3.09779100E-01
 -2.15023140E+00 -2.29600980E+00  2.42356590E+00  2.42356590E+00 -2.13200910E+00
  2.44178820E+00 -3.09779100E-01 -2.15023140E+00  2.44178820E+00  2.42356590E+00
  2.42356590E+00 -3.28001400E-01 -2.13200910E+00  2.44178820E+00 -3.46223700E-01
 -2.11378680E+00  2.42356590E+00 -6.56002800E-01 -2.15023140E+00  2.44178820E+00
 -2.13200910E+00 -2.31423210E+00  2.40534360E+00 -2.29600980E+00  2.42356590E+00
  2.42356590E+00  2.42356590E+00 -3.46223700E-01 -2.15023140E+00 -6.56002800E-01
 -3.28001400E-01 -2.31423210E+00  2.40534360E+00 -2.13200910E+00 -2.11378680E+00
 -3.09779100E-01 -2.15023140E+00 -2.29600980E+00  2.42356590E+00  2.42356590E+00
 -2.13200910E+00  2.44178820E+00 -3.09779100E-01 -2.15023140E+00  2.44178820E+00
  2.42356590E+00  2.42356590E+00 -3.28001400E-01 -2.13200910E+00  2.44178820E+00
 -3.46223700E-01 -2.11378680E+00  2.42356590E+00 -6.56002800E-01 -2.15023140E+00
  2.44178820E+00 -2.13200910E+00 -2.31423210E+00  2.40534360E+00 -2.29600980E+00
  2.42356590E+00  2.42356590E+00  2.42356590E+00 -3.46223700E-01 -2.15023140E+00
 -6.56002800E-01 -3.28001400E-01 -2.31423210E+00  2.40534360E+00 -2.13200910E+00
 -2.11378680E+00 -3.09779100E-01 -2.15023140E+00 -2.29600980E+00  2.42356590E+00
  2.42356590E+00 -2.13200910E+00  2.44178820E+00 -3.09779100E-01 -2.15023140E+00
  2.44178820E+00  2.42356590E+00  2.42356590E+00 -3.28001400E-01 -2.13200910E+00
  2.44178820E+00 -3.46223700E-01 -2.11378680E+00  2.42356590E+00 -6.56002800E-01
 -2.15023140E+00  2.44178820E+00 -2.13200910E+00 -2.31423210E+00  2.40534360E+00
 -2.29600980E+00  2.42356590E+00  2.42356590E+00  2.42356590E+00 -3.46223700E-01
 -2.15023140E+00 -6.56002800E-01 -3.28001400E-01 -2.31423210E+00  2.40534360E+00
 -2.13200910E+00 -2.11378680E+00 -3.09779100E-01 -2.15023140E+00 -2.29600980E+00
  2.42356590E+00  2.42356590E+00 -2.13200910E+00  2.44178820E+00 -3.09779100E-01
 -2.15023140E+00  2.44178820E+00  2.42356590E+00  2.42356590E+00 -3.28001400E-01
 -2.13200910E+00  2.44178820E+00 -3.46223700E-01 -2.11378680E+00  2.42356590E+00
 -6.56002800E-01 -2.15023140E+00  2.44178820E+00 -2.13200910E+00 -2.31423210E+00
  2.40534360E+00 -2.29600980E+00  2.42356590E+00  2.42356590E+00  2.42356590E+00
 -3.46223700E-01 -2.15023140E+00 -6.56002800E-01 -3.28001400E-01 -2.31423210E+00
  2.40534360E+00 -2.13200910E+00 -2.11378680E+00 -3.09779100E-01 -2.15023140E+00
 -2.29600980E+00  2.42356590E+00  2.42356590E+00 -2.13200910E+00  2.44178820E+00
 -3.09779100E-01 -2.15023140E+00  2.44178820E+00  2.42356590E+00  2.42356590E+00
 -3.28001400E-01 -2.13200910E+00  2.44178820E+00 -3.46223700E-01 -2.11378680E+00
  2.42356590E+00 -6.56002800E-01 -2.15023140E+00  2.44178820E+00 -2.13200910E+00
 -2.31423210E+00  2.40534360E+00 -2.29600980E+00  2.42356590E+00  2.42356590E+00
  2.42356590E+00 -3.46223700E-01 -2.15023140E+00 -6.56002800E-01 -3.28001400E-01
 -2.31423210E+00  2.40534360E+00 -2.13200910E+00 -2.11378680E+00 -3.09779100E-01
 -2.15023140E+00 -2.29600980E+00  2.42356590E+00  2.42356590E+00 -2.13200910E+00
  2.44178820E+00 -3.09779100E-01 -2.15023140E+00  2.44178820E+00  2.42356590E+00
  2.42356590E+00 -3.28001400E-01 -2.13200910E+00  2.44178820E+00 -3.46223700E-01
 -2.11378680E+00  2.42356590E+00 -6.56002800E-01 -2.15023140E+00  2.44178820E+00
 -2.13200910E+00 -2.31423210E+00  2.40534360E+00 -2.29600980E+00  2.42356590E+00
  2.42356590E+00  2.42356590E+00 -3.46223700E-01 -2.15023140E+00 -6.56002800E-01
 -3.28001400E-01 -2.31423210E+00  2.40534360E+00 -2.13200910E+00 -2.11378680E+00
 -3.09779100E-01 -2.15023140E+00 -2.29600980E+00  2.42356590E+00  2.42356590E+00
 -2.13200910E+00  2.44178820E+00 -3.09779100E-01 -2.15023140E+00  2.44178820E+00
  2.42356590E+00  2.42356590E+00 -3.28001400E-01 -2.13200910E+00  2.44178820E+00
 -3.46223700E-01 -2.11378680E+00  2.42356590E+00 -6.56002800E-01 -2.15023140E+00
  2.44178820E+00 -2.13200910E+00 -2.31423210E+00  2.40534360E+00 -2.29600980E+00
  2.42356590E+00  2.42356590E+00  2.42356590E+00 -3.46223700E-01 -2.15023140E+00
 -6.56002800E-01 -3.28001400E-01 -2.31423210E+00  2.40534360E+00 -2.13200910E+00
 -2.11378680E+00 -3.09779100E-01 -2.15023140E+00 -2.29600980E+00  2.42356590E+00
  2.42356590E+00 -2.13200910E+00  2.44178820E+00 -3.09779100E-01 -2.15023140E+00
  2.44178820E+00  2.42356590E+00  2.42356590E+00 -3.28001400E-01 -2.13200910E+00
  2.44178820E+00 -3.46223700E-01 -2.11378680E+00  2.42356590E+00 -6.56002800E-01
 -2.15023140E+00  2.44178820E+00 -2.13200910E+00 -2.31423210E+00  2.40534360E+00
 -2.29600980E+00  2.42356590E+00  2.42356590E+00  2.42356590E+00 -3.46223700E-01
 -2.15023140E+00 -6.56002800E-01 -3.28001400E-01 -2.31423210E+00  2.40534360E+00
 -2.13200910E+00 -2.11378680E+00 -3.09779100E-01 -2.15023140E+00 -2.29600980E+00
  2.42356590E+00  2.42356590E+00 -2.13200910E+00  2.44178820E+00 -3.09779100E-01
 -2.15023140E+00  2.44178820E+00  2.42356590E+00  2.42356590E+00 -3.28001400E-01
 -2.13200910E+00  2.44178820E+00 -3.46223700E-01 -2.11378680E+00  2.42356590E+00
 -6.56002800E-01 -2.15023140E+00  2.44178820E+00 -2.13200910E+00 -2.31423210E+00
  2.40534360E+00 -2.29600980E+00  2.42356590E+00  2.42356590E+00  2.42356590E+00
 -3.46223700E-01 -2.15023140E+00 -6.56002800E-01 -3.28001400E-01 -2.31423210E+00
  2.40534360E+00 -2.13200910E+00 -2.11378680E+00 -3.09779100E-01 -2.15023140E+00
 -2.29600980E+00  2.42356590E+00  2.42356590E+00 -2.13200910E+00  2.44178820E+00
 -3.09779100E-01 -2.15023140E+00  2.44178820E+00  2.42356590E+00  2.42356590E+00
 -3.28001400E-01 -2.13200910E+00  2.44178820E+00 -3.46223700E-01 -2.11378680E+00
  2.42356590E+00 -6.56002800E-01 -2.15023140E+00  2.44178820E+00 -2.13200910E+00
 -2.31423210E+00  2.40534360E+00 -2.29600980E+00  2.42356590E+00  2.42356590E+00
  2.42356590E+00 -3.46223700E-01 -2.15023140E+00 -6.56002800E-01 -3.28001400E-01
 -2.31423210E+00  2.40534360E+00 -2.13200910E+00 -2.11378680E+00 -3.09779100E-01
 -2.15023140E+00 -2.29600980E+00  2.42356590E+00  2.42356590E+00 -2.13200910E+00
  2.44178820E+00 -3.09779100E-01 -2.15023140E+00  2.44178820E+00  2.42356590E+00
  2.42356590E+00 -3.28001400E-01 -2.13200910E+00  2.44178820E+00 -3.46223700E-01
 -2.11378680E+00  2.42356590E+00 -6.56002800E-01 -2.15023140E+00  2.44178820E+00
 -2.13200910E+00 -2.31423210E+00  2.40534360E+00 -2.29600980E+00  2.42356590E+00
  2.42356590E+00  2.42356590E+00 -3.46223700E-01 -2.15023140E+00 -6.56002800E-01
 -3.28001400E-01 -2.31423210E+00  2.40534360E+00 -2.13200910E+00 -2.11378680E+00
 -3.09779100E-01 -2.15023140E+00 -2.29600980E+00  2.42356590E+00  2.42356590E+00
 -2.13200910E+00  2.44178820E+00 -3.09779100E-01 -2.15023140E+00  2.44178820E+00
  2.42356590E+00  2.42356590E+00 -3.28001400E-01 -2.13200910E+00  2.44178820E+00
 -3.46223700E-01 -2.11378680E+00  2.42356590E+00 -6.56002800E-01 -2.15023140E+00
  2.44178820E+00 -2.13200910E+00 -2.31423210E+00  2.40534360E+00 -2.29600980E+00
  2.42356590E+00  2.42356590E+00  2.42356590E+00 -3.46223700E-01 -2.15023140E+00
 -6.56002800E-01 -3.28001400E-01 -2.31423210E+00  2.40534360E+00 -2.13200910E+00
 -2.11378680E+00 -3.09779100E-01 -2.15023140E+00 -2.29600980E+00  2.42356590E+00
  2.42356590E+00 -2.13200910E+00  2.44178820E+00 -3.09779100E-01 -2.15023140E+00
  2.44178820E+00  2.42356590E+00  2.42356590E+00 -3.28001400E-01 -2.13200910E+00
  2.44178820E+00 -3.46223700E-01 -2.11378680E+00  2.42356590E+00 -6.56002800E-01
 -2.15023140E+00  2.44178820E+00 -2.13200910E+00 -2.31423210E+00  2.40534360E+00
 -2.29600980E+00  2.42356590E+00  2.42356590E+00  2.42356590E+00 -3.46223700E-01
 -2.15023140E+00 -6.56002800E-01 -3.28001400E-01 -2.31423210E+00  2.40534360E+00
 -2.13200910E+00 -2.11378680E+00 -3.09779100E-01 -2.15023140E+00 -2.29600980E+00
  2.42356590E+00  2.42356590E+00 -2.13200910E+00  2.44178820E+00 -3.09779100E-01
 -2.15023140E+00  2.44178820E+00  2.42356590E+00  2.42356590E+00 -3.28001400E-01
 -2.13200910E+00  2.44178820E+00 -3.46223700E-01 -2.11378680E+00  2.42356590E+00
 -6.56002800E-01 -2.15023140E+00  2.44178820E+00 -2.13200910E+00 -2.31423210E+00
  2.40534360E+00 -2.29600980E+00  2.42356590E+00  2.42356590E+00  2.42356590E+00
 -3.46223700E-01 -2.15023140E+00 -6.56002800E-01 -3.28001400E-01 -2.31423210E+00
  2.40534360E+00 -2.13200910E+00 -2.11378680E+00 -3.09779100E-01 -2.15023140E+00
 -2.29600980E+00  2.42356590E+00  2.42356590E+00 -2.13200910E+00  2.44178820E+00
 -3.09779100E-01 -2.15023140E+00  2.44178820E+00  2.42356590E+00  2.42356590E+00
 -3.28001400E-01 -2.13200910E+00  2.44178820E+00 -3.46223700E-01 -2.11378680E+00
  2.42356590E+00 -6.56002800E-01 -2.15023140E+00  2.44178820E+00 -2.13200910E+00
 -2.31423210E+00  2.40534360E+00 -2.29600980E+00  2.42356590E+00  2.42356590E+00
  2.42356590E+00  1.28102769E-02 -3.51622967E+00 -1.79023164E+00 -1.19483621E+00
 -2.12579530E+00  3.82588122E+00 -2.03603225E+00 -1.13138616E+00  3.08576428E-01
 -1.59601837E+00 -3.68607973E+00  4.22046690E+00  4.33492117E+00 -3.52665283E+00
  4.13655321E+00  4.66818881E-01 -2.29670225E+00  4.31176063E+00  4.12715050E+00
  4.11692779E+00 -6.69049967E-01 -3.59453090E+00  4.52186375E+00 -2.01793750E-01
 -7.42595170E-01  4.17691561E+00 -2.01024769E+00 -3.37145350E+00  4.29574322E+00
 -1.98322402E+00 -2.15205363E+00  3.86806584E+00 -3.63979509E+00  4.28521073E+00
  4.26190441E+00  4.21541933E+00 -3.46223700E-01 -2.15023140E+00 -6.56002800E-01
 -3.28001400E-01 -2.31423210E+00  2.40534360E+00 -2.13200910E+00 -2.11378680E+00
 -3.09779100E-01 -2.15023140E+00 -2.29600980E+00  2.42356590E+00  2.42356590E+00
 -2.13200910E+00  2.44178820E+00 -3.09779100E-01 -2.15023140E+00  2.44178820E+00
  2.42356590E+00  2.42356590E+00 -3.28001400E-01 -2.13200910E+00  2.44178820E+00
 -3.46223700E-01 -2.11378680E+00  2.42356590E+00 -6.56002800E-01 -2.15023140E+00
  2.44178820E+00 -2.13200910E+00 -2.31423210E+00  2.40534360E+00 -2.29600980E+00
  2.42356590E+00  2.42356590E+00  2.42356590E+00 -3.46223700E-01 -2.15023140E+00
 -6.56002800E-01 -3.28001400E-01 -2.31423210E+00  2.40534360E+00 -2.13200910E+00
 -2.11378680E+00 -3.09779100E-01 -2.15023140E+00 -2.29600980E+00  2.42356590E+00
  2.42356590E+00 -2.13200910E+00  2.44178820E+00 -3.09779100E-01 -2.15023140E+00
  2.44178820E+00  2.42356590E+00  2.42356590E+00 -3.28001400E-01 -2.13200910E+00
  2.44178820E+00 -3.46223700E-01 -2.11378680E+00  2.42356590E+00 -6.56002800E-01
 -2.15023140E+00  2.44178820E+00 -2.13200910E+00 -2.31423210E+00  2.40534360E+00
 -2.29600980E+00  2.42356590E+00  2.42356590E+00  2.42356590E+00 -3.46223700E-01
 -2.15023140E+00 -6.56002800E-01 -3.28001400E-01 -2.31423210E+00  2.40534360E+00
 -2.13200910E+00 -2.11378680E+00 -3.09779100E-01 -2.15023140E+00 -2.29600980E+00
  2.42356590E+00  2.42356590E+00 -2.13200910E+00  2.44178820E+00 -3.09779100E-01
 -2.15023140E+00  2.44178820E+00  2.42356590E+00  2.42356590E+00 -3.28001400E-01
 -2.13200910E+00  2.44178820E+00 -3.46223700E-01 -2.11378680E+00  2.42356590E+00
 -6.56002800E-01 -2.15023140E+00  2.44178820E+00 -2.13200910E+00 -2.31423210E+00
  2.40534360E+00 -2.29600980E+00  2.42356590E+00  2.42356590E+00  2.42356590E+00
 -3.46223700E-01 -2.15023140E+00 -6.56002800E-01 -3.28001400E-01 -2.31423210E+00
  2.40534360E+00 -2.13200910E+00 -2.11378680E+00 -3.09779100E-01 -2.15023140E+00
 -2.29600980E+00  2.42356590E+00  2.42356590E+00 -2.13200910E+00  2.44178820E+00
 -3.09779100E-01 -2.15023140E+00  2.44178820E+00  2.42356590E+00  2.42356590E+00
 -3.28001400E-01 -2.13200910E+00  2.44178820E+00 -3.46223700E-01 -2.11378680E+00
  2.42356590E+00 -6.56002800E-01 -2.15023140E+00  2.44178820E+00 -2.13200910E+00
 -2.31423210E+00  2.40534360E+00 -2.29600980E+00  2.42356590E+00  2.42356590E+00
  2.42356590E+00 -3.46223700E-01 -2.15023140E+00 -6.56002800E-01 -3.28001400E-01
 -2.31423210E+00  2.40534360E+00 -2.13200910E+00 -2.11378680E+00 -3.09779100E-01
 -2.15023140E+00 -2.29600980E+00  2.42356590E+00  2.42356590E+00 -2.13200910E+00
  2.44178820E+00 -3.09779100E-01 -2.15023140E+00  2.44178820E+00  2.42356590E+00
  2.42356590E+00 -3.28001400E-01 -2.13200910E+00  2.44178820E+00 -3.46223700E-01
 -2.11378680E+00  2.42356590E+00 -6.56002800E-01 -2.15023140E+00  2.44178820E+00
 -2.13200910E+00 -2.31423210E+00  2.40534360E+00 -2.29600980E+00  2.42356590E+00
  2.42356590E+00  2.42356590E+00 -3.46223700E-01 -2.15023140E+00 -6.56002800E-01
 -3.28001400E-01 -2.31423210E+00  2.40534360E+00 -2.13200910E+00 -2.11378680E+00
 -3.09779100E-01 -2.15023140E+00 -2.29600980E+00  2.42356590E+00  2.42356590E+00
 -2.13200910E+00  2.44178820E+00 -3.09779100E-01 -2.15023140E+00  2.44178820E+00
  2.42356590E+00  2.42356590E+00 -3.28001400E-01 -2.13200910E+00  2.44178820E+00
 -3.46223700E-01 -2.11378680E+00  2.42356590E+00 -6.56002800E-01 -2.15023140E+00
  2.44178820E+00 -2.13200910E+00 -2.31423210E+00  2.40534360E+00 -2.29600980E+00
  2.42356590E+00  2.42356590E+00  2.42356590E+00 -3.46223700E-01 -2.15023140E+00
 -6.56002800E-01 -3.28001400E-01 -2.31423210E+00  2.40534360E+00 -2.13200910E+00
 -2.11378680E+00 -3.09779100E-01 -2.15023140E+00 -2.29600980E+00  2.42356590E+00
  2.42356590E+00 -2.13200910E+00  2.44178820E+00 -3.09779100E-01 -2.15023140E+00
  2.44178820E+00  2.42356590E+00  2.42356590E+00 -3.28001400E-01 -2.13200910E+00
  2.44178820E+00 -3.46223700E-01 -2.11378680E+00  2.42356590E+00 -6.56002800E-01
 -2.15023140E+00  2.44178820E+00 -2.13200910E+00 -2.31423210E+00  2.40534360E+00
 -2.29600980E+00  2.42356590E+00  2.42356590E+00  2.42356590E+00 -3.46223700E-01
 -2.15023140E+00 -6.56002800E-01 -3.28001400E-01 -2.31423210E+00  2.40534360E+00
 -2.13200910E+00 -2.11378680E+00 -3.09779100E-01 -2.15023140E+00 -2.29600980E+00
  2.42356590E+00  2.42356590E+00 -2.13200910E+00  2.44178820E+00 -3.09779100E-01
 -2.15023140E+00  2.44178820E+00  2.42356590E+00  2.42356590E+00 -3.28001400E-01
 -2.13200910E+00  2.44178820E+00 -3.46223700E-01 -2.11378680E+00  2.42356590E+00
 -6.56002800E-01 -2.15023140E+00  2.44178820E+00 -2.13200910E+00 -2.31423210E+00
  2.40534360E+00 -2.29600980E+00  2.42356590E+00  2.42356590E+00  2.42356590E+00
 -3.46223700E-01 -2.15023140E+00 -6.56002800E-01 -3.28001400E-01 -2.31423210E+00
  2.40534360E+00 -2.13200910E+00 -2.11378680E+00 -3.09779100E-01 -2.15023140E+00
 -2.29600980E+00  2.42356590E+00  2.42356590E+00 -2.13200910E+00  2.44178820E+00
 -3.09779100E-01 -2.15023140E+00  2.44178820E+00  2.42356590E+00  2.42356590E+00
 -3.28001400E-01 -2.13200910E+00  2.44178820E+00 -3.46223700E-01 -2.11378680E+00
  2.42356590E+00 -6.56002800E-01 -2.15023140E+00  2.44178820E+00 -2.13200910E+00
 -2.31423210E+00  2.40534360E+00 -2.29600980E+00  2.42356590E+00  2.42356590E+00
  2.42356590E+00 -3.46223700E-01 -2.15023140E+00 -6.56002800E-01 -3.28001400E-01
 -2.31423210E+00  2.40534360E+00 -2.13200910E+00 -2.11378680E+00 -3.09779100E-01
 -2.15023140E+00 -2.29600980E+00  2.42356590E+00  2.42356590E+00 -2.13200910E+00
  2.44178820E+00 -3.09779100E-01 -2.15023140E+00  2.44178820E+00  2.42356590E+00
  2.42356590E+00 -3.28001400E-01 -2.13200910E+00  2.44178820E+00 -3.46223700E-01
 -2.11378680E+00  2.42356590E+00 -6.56002800E-01 -2.15023140E+00  2.44178820E+00
 -2.13200910E+00 -2.31423210E+00  2.40534360E+00 -2.29600980E+00  2.42356590E+00
  2.42356590E+00  2.42356590E+00 -3.46223700E-01 -2.15023140E+00 -6.56002800E-01
 -3.28001400E-01 -2.31423210E+00  2.40534360E+00 -2.13200910E+00 -2.11378680E+00
 -3.09779100E-01 -2.15023140E+00 -2.29600980E+00  2.42356590E+00  2.42356590E+00
 -2.13200910E+00  2.44178820E+00 -3.09779100E-01 -2.15023140E+00  2.44178820E+00
  2.42356590E+00  2.42356590E+00 -3.28001400E-01 -2.13200910E+00  2.44178820E+00
 -3.46223700E-01 -2.11378680E+00  2.42356590E+00 -6.56002800E-01 -2.15023140E+00
  2.44178820E+00 -2.13200910E+00 -2.31423210E+00  2.40534360E+00 -2.29600980E+00
  2.42356590E+00  2.42356590E+00  2.42356590E+00 -3.46223700E-01 -2.15023140E+00
 -6.56002800E-01 -3.28001400E-01 -2.31423210E+00  2.40534360E+00 -2.13200910E+00
 -2.11378680E+00 -3.09779100E-01 -2.15023140E+00 -2.29600980E+00  2.42356590E+00
  2.42356590E+00 -2.13200910E+00  2.44178820E+00 -3.09779100E-01 -2.15023140E+00
  2.44178820E+00  2.42356590E+00  2.42356590E+00 -3.28001400E-01 -2.13200910E+00
  2.44178820E+00 -3.46223700E-01 -2.11378680E+00  2.42356590E+00 -6.56002800E-01
 -2.15023140E+00  2.44178820E+00 -2.13200910E+00 -2.31423210E+00  2.40534360E+00
 -2.29600980E+00  2.42356590E+00  2.42356590E+00  2.42356590E+00 -3.46223700E-01
 -2.15023140E+00 -6.56002800E-01 -3.28001400E-01 -2.31423210E+00  2.40534360E+00
 -2.13200910E+00 -2.11378680E+00 -3.09779100E-01 -2.15023140E+00 -2.29600980E+00
  2.42356590E+00  2.42356590E+00 -2.13200910E+00  2.44178820E+00 -3.09779100E-01
 -2.15023140E+00  2.44178820E+00  2.42356590E+00  2.42356590E+00 -3.28001400E-01
 -2.13200910E+00  2.44178820E+00 -3.46223700E-01 -2.11378680E+00  2.42356590E+00
 -6.56002800E-01 -2.15023140E+00  2.44178820E+00 -2.13200910E+00 -2.31423210E+00
  2.40534360E+00 -2.29600980E+00  2.42356590E+00  2.42356590E+00  2.42356590E+00
 -3.46223700E-01 -2.15023140E+00 -6.56002800E-01 -3.28001400E-01 -2.31423210E+00
  2.40534360E+00 -2.13200910E+00 -2.11378680E+00 -3.09779100E-01 -2.15023140E+00
 -2.29600980E+00  2.42356590E+00  2.42356590E+00 -2.13200910E+00  2.44178820E+00
 -3.09779100E-01 -2.15023140E+00  2.44178820E+00  2.42356590E+00  2.42356590E+00
 -3.28001400E-01 -2.13200910E+00  2.44178820E+00 -3.46223700E-01 -2.11378680E+00
  2.42356590E+00 -6.56002800E-01 -2.15023140E+00  2.44178820E+00 -2.13200910E+00
 -2.31423210E+00  2.40534360E+00 -2.29600980E+00  2.42356590E+00  2.42356590E+00
  2.42356590E+00 -3.46223700E-01 -2.15023140E+00 -6.56002800E-01 -3.28001400E-01
 -2.31423210E+00  2.40534360E+00 -2.13200910E+00 -2.11378680E+00 -3.09779100E-01
 -2.15023140E+00 -2.29600980E+00  2.42356590E+00  2.42356590E+00 -2.13200910E+00
  2.44178820E+00 -3.09779100E-01 -2.15023140E+00  2.44178820E+00  2.42356590E+00
  2.42356590E+00 -3.28001400E-01 -2.13200910E+00  2.44178820E+00 -3.46223700E-01
 -2.11378680E+00  2.42356590E+00 -6.56002800E-01 -2.15023140E+00  2.44178820E+00
 -2.13200910E+00 -2.31423210E+00  2.40534360E+00 -2.29600980E+00  2.42356590E+00
  2.42356590E+00  2.42356590E+00 -3.46223700E-01 -2.15023140E+00 -6.56002800E-01
 -3.28001400E-01 -2.31423210E+00  2.40534360E+00 -2.13200910E+00 -2.11378680E+00
 -3.09779100E-01 -2.15023140E+00 -2.29600980E+00  2.42356590E+00  2.42356590E+00
 -2.13200910E+00  2.44178820E+00 -3.09779100E-01 -2.15023140E+00  2.44178820E+00
  2.42356590E+00  2.42356590E+00 -3.28001400E-01 -2.13200910E+00  2.44178820E+00
 -3.46223700E-01 -2.11378680E+00  2.42356590E+00 -6.56002800E-01 -2.15023140E+00
  2.44178820E+00 -2.13200910E+00 -2.31423210E+00  2.40534360E+00 -2.29600980E+00
  2.42356590E+00  2.42356590E+00  2.42356590E+00 -3.46223700E-01 -2.15023140E+00
 -6.56002800E-01 -3.28001400E-01 -2.31423210E+00  2.40534360E+00 -2.13200910E+00
 -2.11378680E+00 -3.09779100E-01 -2.15023140E+00 -2.29600980E+00  2.42356590E+00
  2.42356590E+00 -2.13200910E+00  2.44178820E+00 -3.09779100E-01 -2.15023140E+00
  2.44178820E+00  2.42356590E+00  2.42356590E+00 -3.28001400E-01 -2.13200910E+00
  2.44178820E+00 -3.46223700E-01 -2.11378680E+00  2.42356590E+00 -6.56002800E-01
 -2.15023140E+00  2.44178820E+00 -2.13200910E+00 -2.31423210E+00  2.40534360E+00
 -2.29600980E+00  2.42356590E+00  2.42356590E+00  2.42356590E+00 -3.46223700E-01
 -2.15023140E+00 -6.56002800E-01 -3.28001400E-01 -2.31423210E+00  2.40534360E+00
 -2.13200910E+00 -2.11378680E+00 -3.09779100E-01 -2.15023140E+00 -2.29600980E+00
  2.42356590E+00  2.42356590E+00 -2.13200910E+00  2.44178820E+00 -3.09779100E-01
 -2.15023140E+00  2.44178820E+00  2.42356590E+00  2.42356590E+00 -3.28001400E-01
 -2.13200910E+00  2.44178820E+00 -3.46223700E-01 -2.11378680E+00  2.42356590E+00
 -6.56002800E-01 -2.15023140E+00  2.44178820E+00 -2.13200910E+00 -2.31423210E+00
  2.40534360E+00 -2.29600980E+00  2.42356590E+00  2.42356590E+00  2.42356590E+00
 -3.46223700E-01 -2.15023140E+00 -6.56002800E-01 -3.28001400E-01 -2.31423210E+00
  2.40534360E+00 -2.13200910E+00 -2.11378680E+00 -3.09779100E-01 -2.15023140E+00
 -2.29600980E+00  2.42356590E+00  2.42356590E+00 -2.13200910E+00  2.44178820E+00
 -3.09779100E-01 -2.15023140E+00  2.44178820E+00  2.42356590E+00  2.42356590E+00
 -3.28001400E-01 -2.13200910E+00  2.44178820E+00 -3.46223700E-01 -2.11378680E+00
  2.42356590E+00 -6.56002800E-01 -2.15023140E+00  2.44178820E+00 -2.13200910E+00
 -2.31423210E+00  2.40534360E+00 -2.29600980E+00  2.42356590E+00  2.42356590E+00
  2.42356590E+00 -3.46223700E-01 -2.15023140E+00 -6.56002800E-01 -3.28001400E-01
 -2.31423210E+00  2.40534360E+00 -2.13200910E+00 -2.11378680E+00 -3.09779100E-01
 -2.15023140E+00 -2.29600980E+00  2.42356590E+00  2.42356590E+00 -2.13200910E+00
  2.44178820E+00 -3.09779100E-01 -2.15023140E+00  2.44178820E+00  2.42356590E+00
  2.42356590E+00 -3.28001400E-01 -2.13200910E+00  2.44178820E+00 -3.46223700E-01
 -2.11378680E+00  2.42356590E+00 -6.56002800E-01 -2.15023140E+00  2.44178820E+00
 -2.13200910E+00 -2.31423210E+00  2.40534360E+00 -2.29600980E+00  2.42356590E+00
  2.42356590E+00  2.42356590E+00 -3.46223700E-01 -2.15023140E+00 -6.56002800E-01
 -3.28001400E-01 -2.31423210E+00  2.40534360E+00 -2.13200910E+00 -2.11378680E+00
 -3.09779100E-01 -2.15023140E+00 -2.29600980E+00  2.42356590E+00  2.42356590E+00
 -2.13200910E+00  2.44178820E+00 -3.09779100E-01 -2.15023140E+00  2.44178820E+00
  2.42356590E+00  2.42356590E+00 -3.28001400E-01 -2.13200910E+00  2.44178820E+00
 -3.46223700E-01 -2.11378680E+00  2.42356590E+00 -6.56002800E-01 -2.15023140E+00
  2.44178820E+00 -2.13200910E+00 -2.31423210E+00  2.40534360E+00 -2.29600980E+00
  2.42356590E+00  2.42356590E+00  2.42356590E+00 -3.46223700E-01 -2.15023140E+00
 -6.56002800E-01 -3.28001400E-01 -2.31423210E+00  2.40534360E+00 -2.13200910E+00
 -2.11378680E+00 -3.09779100E-01 -2.15023140E+00 -2.29600980E+00  2.42356590E+00
  2.42356590E+00 -2.13200910E+00  2.44178820E+00 -3.09779100E-01 -2.15023140E+00
  2.44178820E+00  2.42356590E+00  2.42356590E+00 -3.28001400E-01 -2.13200910E+00
  2.44178820E+00 -3.46223700E-01 -2.11378680E+00  2.42356590E+00 -6.56002800E-01
 -2.15023140E+00  2.44178820E+00 -2.13200910E+00 -2.31423210E+00  2.40534360E+00
 -2.29600980E+00  2.42356590E+00  2.42356590E+00  2.42356590E+00 -3.46223700E-01
 -2.15023140E+00 -6.56002800E-01 -3.28001400E-01 -2.31423210E+00  2.40534360E+00
 -2.13200910E+00 -2.11378680E+00 -3.09779100E-01 -2.15023140E+00 -2.29600980E+00
  2.42356590E+00  2.42356590E+00 -2.13200910E+00  2.44178820E+00 -3.09779100E-01
 -2.15023140E+00  2.44178820E+00  2.42356590E+00  2.42356590E+00 -3.28001400E-01
 -2.13200910E+00  2.44178820E+00 -3.46223700E-01 -2.11378680E+00  2.42356590E+00
 -6.56002800E-01 -2.15023140E+00  2.44178820E+00 -2.13200910E+00 -2.31423210E+00
  2.40534360E+00 -2.29600980E+00  2.42356590E+00  2.42356590E+00  2.42356590E+00
 -3.46223700E-01 -2.15023140E+00 -6.56002800E-01 -3.28001400E-01 -2.31423210E+00
  2.40534360E+00 -2.13200910E+00 -2.11378680E+00 -3.09779100E-01 -2.15023140E+00
 -2.29600980E+00  2.42356590E+00  2.42356590E+00 -2.13200910E+00  2.44178820E+00
 -3.09779100E-01 -2.15023140E+00  2.44178820E+00  2.42356590E+00  2.42356590E+00
 -3.28001400E-01 -2.13200910E+00  2.44178820E+00 -3.46223700E-01 -2.11378680E+00
  2.42356590E+00 -6.56002800E-01 -2.15023140E+00  2.44178820E+00 -2.13200910E+00
 -2.31423210E+00  2.40534360E+00 -2.29600980E+00  2.42356590E+00  2.42356590E+00
  2.42356590E+00 -3.46223700E-01 -2.15023140E+00 -6.56002800E-01 -3.28001400E-01
 -2.31423210E+00  2.40534360E+00 -2.13200910E+00 -2.11378680E+00 -3.09779100E-01
 -2.15023140E+00 -2.29600980E+00  2.42356590E+00  2.42356590E+00 -2.13200910E+00
  2.44178820E+00 -3.09779100E-01 -2.15023140E+00  2.44178820E+00  2.42356590E+00
  2.42356590E+00 -3.28001400E-01 -2.13200910E+00  2.44178820E+00 -3.46223700E-01
 -2.11378680E+00  2.42356590E+00 -6.56002800E-01 -2.15023140E+00  2.44178820E+00
 -2.13200910E+00 -2.31423210E+00  2.40534360E+00 -2.29600980E+00  2.42356590E+00
  2.42356590E+00  2.42356590E+00 -3.46223700E-01 -2.15023140E+00 -6.56002800E-01
 -3.28001400E-01 -2.31423210E+00  2.40534360E+00 -2.13200910E+00 -2.11378680E+00
 -3.09779100E-01 -2.15023140E+00 -2.29600980E+00  2.42356590E+00  2.42356590E+00
 -2.13200910E+00  2.44178820E+00 -3.09779100E-01 -2.15023140E+00  2.44178820E+00
  2.42356590E+00  2.42356590E+00 -3.28001400E-01 -2.13200910E+00  2.44178820E+00
 -3.46223700E-01 -2.11378680E+00  2.42356590E+00 -6.56002800E-01 -2.15023140E+00
  2.44178820E+00 -2.13200910E+00 -2.31423210E+00  2.40534360E+00 -2.29600980E+00
  2.42356590E+00  2.42356590E+00  2.42356590E+00 -3.46223700E-01 -2.15023140E+00
 -6.56002800E-01 -3.28001400E-01 -2.31423210E+00  2.40534360E+00 -2.13200910E+00
 -2.11378680E+00 -3.09779100E-01 -2.15023140E+00 -2.29600980E+00  2.42356590E+00
  2.42356590E+00 -2.13200910E+00  2.44178820E+00 -3.09779100E-01 -2.15023140E+00
  2.44178820E+00  2.42356590E+00  2.42356590E+00 -3.28001400E-01 -2.13200910E+00
  2.44178820E+00 -3.46223700E-01 -2.11378680E+00  2.42356590E+00 -6.56002800E-01
 -2.15023140E+00  2.44178820E+00 -2.13200910E+00 -2.31423210E+00  2.40534360E+00
 -2.29600980E+00  2.42356590E+00  2.42356590E+00  2.42356590E+00 -3.46223700E-01
 -2.15023140E+00 -6.56002800E-01 -3.28001400E-01 -2.31423210E+00  2.40534360E+00
 -2.13200910E+00 -2.11378680E+00 -3.09779100E-01 -2.15023140E+00 -2.29600980E+00
  2.42356590E+00  2.42356590E+00 -2.13200910E+00  2.44178820E+00 -3.09779100E-01
 -2.15023140E+00  2.44178820E+00  2.42356590E+00  2.42356590E+00 -3.28001400E-01
 -2.13200910E+00  2.44178820E+00 -3.46223700E-01 -2.11378680E+00  2.42356590E+00
 -6.56002800E-01 -2.15023140E+00  2.44178820E+00 -2.13200910E+00 -2.31423210E+00
  2.40534360E+00 -2.29600980E+00  2.42356590E+00  2.42356590E+00  2.42356590E+00
 -3.46223700E-01 -2.15023140E+00 -6.56002800E-01 -3.28001400E-01 -2.31423210E+00
  2.40534360E+00 -2.13200910E+00 -2.11378680E+00 -3.09779100E-01 -2.15023140E+00
 -2.29600980E+00  2.42356590E+00  2.42356590E+00 -2.13200910E+00  2.44178820E+00
 -3.09779100E-01 -2.15023140E+00  2.44178820E+00  2.42356590E+00  2.42356590E+00
 -3.28001400E-01 -2.13200910E+00  2.44178820E+00 -3.46223700E-01 -2.11378680E+00
  2.42356590E+00 -6.56002800E-01 -2.15023140E+00  2.44178820E+00 -2.13200910E+00
 -2.31423210E+00  2.40534360E+00 -2.29600980E+00  2.42356590E+00  2.42356590E+00
  2.42356590E+00 -3.46223700E-01 -2.15023140E+00 -6.56002800E-01 -3.28001400E-01
 -2.31423210E+00  2.40534360E+00 -2.13200910E+00 -2.11378680E+00 -3.09779100E-01
 -2.15023140E+00 -2.29600980E+00  2.42356590E+00  2.42356590E+00 -2.13200910E+00
  2.44178820E+00 -3.09779100E-01 -2.15023140E+00  2.44178820E+00  2.42356590E+00
  2.42356590E+00 -3.28001400E-01 -2.13200910E+00  2.44178820E+00 -3.46223700E-01
 -2.11378680E+00  2.42356590E+00 -6.56002800E-01 -2.15023140E+00  2.44178820E+00
 -2.13200910E+00 -2.31423210E+00  2.40534360E+00 -2.29600980E+00  2.42356590E+00
  2.42356590E+00  2.42356590E+00 -3.46223700E-01 -2.15023140E+00 -6.56002800E-01
 -3.28001400E-01 -2.31423210E+00  2.40534360E+00 -2.13200910E+00 -2.11378680E+00
 -3.09779100E-01 -2.15023140E+00 -2.29600980E+00  2.42356590E+00  2.42356590E+00
 -2.13200910E+00  2.44178820E+00 -3.09779100E-01 -2.15023140E+00  2.44178820E+00
  2.42356590E+00  2.42356590E+00 -3.28001400E-01 -2.13200910E+00  2.44178820E+00
 -3.46223700E-01 -2.11378680E+00  2.42356590E+00 -6.56002800E-01 -2.15023140E+00
  2.44178820E+00 -2.13200910E+00 -2.31423210E+00  2.40534360E+00 -2.29600980E+00
  2.42356590E+00  2.42356590E+00  2.42356590E+00 -3.46223700E-01 -2.15023140E+00
 -6.56002800E-01 -3.28001400E-01 -2.31423210E+00  2.40534360E+00 -2.13200910E+00
 -2.11378680E+00 -3.09779100E-01 -2.15023140E+00 -2.29600980E+00  2.42356590E+00
  2.42356590E+00 -2.13200910E+00  2.44178820E+00 -3.09779100E-01 -2.15023140E+00
  2.44178820E+00  2.42356590E+00  2.42356590E+00 -3.28001400E-01 -2.13200910E+00
  2.44178820E+00 -3.46223700E-01 -2.11378680E+00  2.42356590E+00 -6.56002800E-01
 -2.15023140E+00  2.44178820E+00 -2.13200910E+00 -2.31423210E+00  2.40534360E+00
 -2.29600980E+00  2.42356590E+00  2.42356590E+00  2.42356590E+00 -3.46223700E-01
 -2.15023140E+00 -6.56002800E-01 -3.28001400E-01 -2.31423210E+00  2.40534360E+00
 -2.13200910E+00 -2.11378680E+00 -3.09779100E-01 -2.15023140E+00 -2.29600980E+00
  2.42356590E+00  2.42356590E+00 -2.13200910E+00  2.44178820E+00 -3.09779100E-01
 -2.15023140E+00  2.44178820E+00  2.42356590E+00  2.42356590E+00 -3.28001400E-01
 -2.13200910E+00  2.44178820E+00 -3.46223700E-01 -2.11378680E+00  2.42356590E+00
 -6.56002800E-01 -2.15023140E+00  2.44178820E+00 -2.13200910E+00 -2.31423210E+00
  2.40534360E+00 -2.29600980E+00  2.42356590E+00  2.42356590E+00  2.42356590E+00
 -3.46223700E-01 -2.15023140E+00 -6.56002800E-01 -3.28001400E-01 -2.31423210E+00
  2.40534360E+00 -2.13200910E+00 -2.11378680E+00 -3.09779100E-01 -2.15023140E+00
 -2.29600980E+00  2.42356590E+00  2.42356590E+00 -2.13200910E+00  2.44178820E+00
 -3.09779100E-01 -2.15023140E+00  2.44178820E+00  2.42356590E+00  2.42356590E+00
 -3.28001400E-01 -2.13200910E+00  2.44178820E+00 -3.46223700E-01 -2.11378680E+00
  2.42356590E+00 -6.56002800E-01 -2.15023140E+00  2.44178820E+00 -2.13200910E+00
 -2.31423210E+00  2.40534360E+00 -2.29600980E+00  2.42356590E+00  2.42356590E+00
  2.42356590E+00 -3.46223700E-01 -2.15023140E+00 -6.56002800E-01 -3.28001400E-01
 -2.31423210E+00  2.40534360E+00 -2.13200910E+00 -2.11378680E+00 -3.09779100E-01
 -2.15023140E+00 -2.29600980E+00  2.42356590E+00  2.42356590E+00 -2.13200910E+00
  2.44178820E+00 -3.09779100E-01 -2.15023140E+00  2.44178820E+00  2.42356590E+00
  2.42356590E+00 -3.28001400E-01 -2.13200910E+00  2.44178820E+00 -3.46223700E-01
 -2.11378680E+00  2.42356590E+00 -6.56002800E-01 -2.15023140E+00  2.44178820E+00
 -2.13200910E+00 -2.31423210E+00  2.40534360E+00 -2.29600980E+00  2.42356590E+00
  2.42356590E+00  2.42356590E+00 -3.46223700E-01 -2.15023140E+00 -6.56002800E-01
 -3.28001400E-01 -2.31423210E+00  2.40534360E+00 -2.13200910E+00 -2.11378680E+00
 -3.09779100E-01 -2.15023140E+00 -2.29600980E+00  2.42356590E+00  2.42356590E+00
 -2.13200910E+00  2.44178820E+00 -3.09779100E-01 -2.15023140E+00  2.44178820E+00
  2.42356590E+00  2.42356590E+00 -3.28001400E-01 -2.13200910E+00  2.44178820E+00
 -3.46223700E-01 -2.11378680E+00  2.42356590E+00 -6.56002800E-01 -2.15023140E+00
  2.44178820E+00 -2.13200910E+00 -2.31423210E+00  2.40534360E+00 -2.29600980E+00
  2.42356590E+00  2.42356590E+00  2.42356590E+00 -3.46223700E-01 -2.15023140E+00
 -6.56002800E-01 -3.28001400E-01 -2.31423210E+00  2.40534360E+00 -2.13200910E+00
 -2.11378680E+00 -3.09779100E-01 -2.15023140E+00 -2.29600980E+00  2.42356590E+00
  2.42356590E+00 -2.13200910E+00  2.44178820E+00 -3.09779100E-01 -2.15023140E+00
  2.44178820E+00  2.42356590E+00  2.42356590E+00 -3.28001400E-01 -2.13200910E+00
  2.44178820E+00 -3.46223700E-01 -2.11378680E+00  2.42356590E+00 -6.56002800E-01
 -2.15023140E+00  2.44178820E+00 -2.13200910E+00 -2.31423210E+00  2.40534360E+00
 -2.29600980E+00  2.42356590E+00  2.42356590E+00  2.42356590E+00 -3.46223700E-01
 -2.15023140E+00 -6.56002800E-01 -3.28001400E-01 -2.31423210E+00  2.40534360E+00
 -2.13200910E+00 -2.11378680E+00 -3.09779100E-01 -2.15023140E+00 -2.29600980E+00
  2.42356590E+00  2.42356590E+00 -2.13200910E+00  2.44178820E+00 -3.09779100E-01
 -2.15023140E+00  2.44178820E+00  2.42356590E+00  2.42356590E+00 -3.28001400E-01
 -2.13200910E+00  2.44178820E+00 -3.46223700E-01 -2.11378680E+00  2.42356590E+00
 -6.56002800E-01 -2.15023140E+00  2.44178820E+00 -2.13200910E+00 -2.31423210E+00
  2.40534360E+00 -2.29600980E+00  2.42356590E+00  2.42356590E+00  2.42356590E+00
 -3.46223700E-01 -2.15023140E+00 -6.56002800E-01 -3.28001400E-01 -2.31423210E+00
  2.40534360E+00 -2.13200910E+00 -2.11378680E+00 -3.09779100E-01 -2.15023140E+00
 -2.29600980E+00  2.42356590E+00  2.42356590E+00 -2.13200910E+00  2.44178820E+00
 -3.09779100E-01 -2.15023140E+00  2.44178820E+00  2.42356590E+00  2.42356590E+00
 -3.28001400E-01 -2.13200910E+00  2.44178820E+00 -3.46223700E-01 -2.11378680E+00
  2.42356590E+00 -6.56002800E-01 -2.15023140E+00  2.44178820E+00 -2.13200910E+00
 -2.31423210E+00  2.40534360E+00 -2.29600980E+00  2.42356590E+00  2.42356590E+00
  2.42356590E+00 -3.46223700E-01 -2.15023140E+00 -6.56002800E-01 -3.28001400E-01
 -2.31423210E+00  2.40534360E+00 -2.13200910E+00 -2.11378680E+00 -3.09779100E-01
 -2.15023140E+00 -2.29600980E+00  2.42356590E+00  2.42356590E+00 -2.13200910E+00
  2.44178820E+00 -3.09779100E-01 -2.15023140E+00  2.44178820E+00  2.42356590E+00
  2.42356590E+00 -3.28001400E-01 -2.13200910E+00  2.44178820E+00 -3.46223700E-01
 -2.11378680E+00  2.42356590E+00 -6.56002800E-01 -2.15023140E+00  2.44178820E+00
 -2.13200910E+00 -2.31423210E+00  2.40534360E+00 -2.29600980E+00  2.42356590E+00
  2.42356590E+00  2.42356590E+00 -3.46223700E-01 -2.15023140E+00 -6.56002800E-01
 -3.28001400E-01 -2.31423210E+00  2.40534360E+00 -2.13200910E+00 -2.11378680E+00
 -3.09779100E-01 -2.15023140E+00 -2.29600980E+00  2.42356590E+00  2.42356590E+00
 -2.13200910E+00  2.44178820E+00 -3.09779100E-01 -2.15023140E+00  2.44178820E+00
  2.42356590E+00  2.42356590E+00 -3.28001400E-01 -2.13200910E+00  2.44178820E+00
 -3.46223700E-01 -2.11378680E+00  2.42356590E+00 -6.56002800E-01 -2.15023140E+00
  2.44178820E+00 -2.13200910E+00 -2.31423210E+00  2.40534360E+00 -2.29600980E+00
  2.42356590E+00  2.42356590E+00  2.42356590E+00 -3.46223700E-01 -2.15023140E+00
 -6.56002800E-01 -3.28001400E-01 -2.31423210E+00  2.40534360E+00 -2.13200910E+00
 -2.11378680E+00 -3.09779100E-01 -2.15023140E+00 -2.29600980E+00  2.42356590E+00
  2.42356590E+00 -2.13200910E+00  2.44178820E+00 -3.09779100E-01 -2.15023140E+00
  2.44178820E+00  2.42356590E+00  2.42356590E+00 -3.28001400E-01 -2.13200910E+00
  2.44178820E+00 -3.46223700E-01 -2.11378680E+00  2.42356590E+00 -6.56002800E-01
 -2.15023140E+00  2.44178820E+00 -2.13200910E+00 -2.31423210E+00  2.40534360E+00
 -2.29600980E+00  2.42356590E+00  2.42356590E+00  2.42356590E+00 -3.46223700E-01
 -2.15023140E+00 -6.56002800E-01 -3.28001400E-01 -2.31423210E+00  2.40534360E+00
 -2.13200910E+00 -2.11378680E+00 -3.09779100E-01 -2.15023140E+00 -2.29600980E+00
  2.42356590E+00  2.42356590E+00 -2.13200910E+00  2.44178820E+00 -3.09779100E-01
 -2.15023140E+00  2.44178820E+00  2.42356590E+00  2.42356590E+00 -3.28001400E-01
 -2.13200910E+00  2.44178820E+00 -3.46223700E-01 -2.11378680E+00  2.42356590E+00
 -6.56002800E-01 -2.15023140E+00  2.44178820E+00 -2.13200910E+00 -2.31423210E+00
  2.40534360E+00 -2.29600980E+00  2.42356590E+00  2.42356590E+00  2.42356590E+00
 -3.46223700E-01 -2.15023140E+00 -6.56002800E-01 -3.28001400E-01 -2.31423210E+00
  2.40534360E+00 -2.13200910E+00 -2.11378680E+00 -3.09779100E-01 -2.15023140E+00
 -2.29600980E+00  2.42356590E+00  2.42356590E+00 -2.13200910E+00  2.44178820E+00
 -3.09779100E-01 -2.15023140E+00  2.44178820E+00  2.42356590E+00  2.42356590E+00
 -3.28001400E-01 -2.13200910E+00  2.44178820E+00 -3.46223700E-01 -2.11378680E+00
  2.42356590E+00 -6.56002800E-01 -2.15023140E+00  2.44178820E+00 -2.13200910E+00
 -2.31423210E+00  2.40534360E+00 -2.29600980E+00  2.42356590E+00  2.42356590E+00
  2.42356590E+00 -3.46223700E-01 -2.15023140E+00 -6.56002800E-01 -3.28001400E-01
 -2.31423210E+00  2.40534360E+00 -2.13200910E+00 -2.11378680E+00 -3.09779100E-01
 -2.15023140E+00 -2.29600980E+00  2.42356590E+00  2.42356590E+00 -2.13200910E+00
  2.44178820E+00 -3.09779100E-01 -2.15023140E+00  2.44178820E+00  2.42356590E+00
  2.42356590E+00 -3.28001400E-01 -2.13200910E+00  2.44178820E+00 -3.46223700E-01
 -2.11378680E+00  2.42356590E+00 -6.56002800E-01 -2.15023140E+00  2.44178820E+00
 -2.13200910E+00 -2.31423210E+00  2.40534360E+00 -2.29600980E+00  2.42356590E+00
  2.42356590E+00  2.42356590E+00 -3.46223700E-01 -2.15023140E+00 -6.56002800E-01
 -3.28001400E-01 -2.31423210E+00  2.40534360E+00 -2.13200910E+00 -2.11378680E+00
 -3.09779100E-01 -2.15023140E+00 -2.29600980E+00  2.42356590E+00  2.42356590E+00
 -2.13200910E+00  2.44178820E+00 -3.09779100E-01 -2.15023140E+00  2.44178820E+00
  2.42356590E+00  2.42356590E+00 -3.28001400E-01 -2.13200910E+00  2.44178820E+00
 -3.46223700E-01 -2.11378680E+00  2.42356590E+00 -6.56002800E-01 -2.15023140E+00
  2.44178820E+00 -2.13200910E+00 -2.31423210E+00  2.40534360E+00 -2.29600980E+00
  2.42356590E+00  2.42356590E+00  2.42356590E+00 -3.46223700E-01 -2.15023140E+00
 -6.56002800E-01 -3.28001400E-01 -2.31423210E+00  2.40534360E+00 -2.13200910E+00
 -2.11378680E+00 -3.09779100E-01 -2.15023140E+00 -2.29600980E+00  2.42356590E+00
  2.42356590E+00 -2.13200910E+00  2.44178820E+00 -3.09779100E-01 -2.15023140E+00
  2.44178820E+00  2.42356590E+00  2.42356590E+00 -3.28001400E-01 -2.13200910E+00
  2.44178820E+00 -3.46223700E-01 -2.11378680E+00  2.42356590E+00 -6.56002800E-01
 -2.15023140E+00  2.44178820E+00 -2.13200910E+00 -2.31423210E+00  2.40534360E+00
 -2.29600980E+00  2.42356590E+00  2.42356590E+00  2.42356590E+00 -3.46223700E-01
 -2.15023140E+00 -6.56002800E-01 -3.28001400E-01 -2.31423210E+00  2.40534360E+00
 -2.13200910E+00 -2.11378680E+00 -3.09779100E-01 -2.15023140E+00 -2.29600980E+00
  2.42356590E+00  2.42356590E+00 -2.13200910E+00  2.44178820E+00 -3.09779100E-01
 -2.15023140E+00  2.44178820E+00  2.42356590E+00  2.42356590E+00 -3.28001400E-01
 -2.13200910E+00  2.44178820E+00 -3.46223700E-01 -2.11378680E+00  2.42356590E+00
 -6.56002800E-01 -2.15023140E+00  2.44178820E+00 -2.13200910E+00 -2.31423210E+00
  2.40534360E+00 -2.29600980E+00  2.42356590E+00  2.42356590E+00  2.42356590E+00
 -3.46223700E-01 -2.15023140E+00 -6.56002800E-01 -3.28001400E-01 -2.31423210E+00
  2.40534360E+00 -2.13200910E+00 -2.11378680E+00 -3.09779100E-01 -2.15023140E+00
 -2.29600980E+00  2.42356590E+00  2.42356590E+00 -2.13200910E+00  2.44178820E+00
 -3.09779100E-01 -2.15023140E+00  2.44178820E+00  2.42356590E+00  2.42356590E+00
 -3.28001400E-01 -2.13200910E+00  2.44178820E+00 -3.46223700E-01 -2.11378680E+00
  2.42356590E+00 -6.56002800E-01 -2.15023140E+00  2.44178820E+00 -2.13200910E+00
 -2.31423210E+00  2.40534360E+00 -2.29600980E+00  2.42356590E+00  2.42356590E+00
  2.42356590E+00 -3.46223700E-01 -2.15023140E+00 -6.56002800E-01 -3.28001400E-01
 -2.31423210E+00  2.40534360E+00 -2.13200910E+00 -2.11378680E+00 -3.09779100E-01
 -2.15023140E+00 -2.29600980E+00  2.42356590E+00  2.42356590E+00 -2.13200910E+00
  2.44178820E+00 -3.09779100E-01 -2.15023140E+00  2.44178820E+00  2.42356590E+00
  2.42356590E+00 -3.28001400E-01 -2.13200910E+00  2.44178820E+00 -3.46223700E-01
 -2.11378680E+00  2.42356590E+00 -6.56002800E-01 -2.15023140E+00  2.44178820E+00
 -2.13200910E+00 -2.31423210E+00  2.40534360E+00 -2.29600980E+00  2.42356590E+00
  2.42356590E+00  2.42356590E+00 -3.46223700E-01 -2.15023140E+00 -6.56002800E-01
 -3.28001400E-01 -2.31423210E+00  2.40534360E+00 -2.13200910E+00 -2.11378680E+00
 -3.09779100E-01 -2.15023140E+00 -2.29600980E+00  2.42356590E+00  2.42356590E+00
 -2.13200910E+00  2.44178820E+00 -3.09779100E-01 -2.15023140E+00  2.44178820E+00
  2.42356590E+00  2.42356590E+00 -3.28001400E-01 -2.13200910E+00  2.44178820E+00
 -3.46223700E-01 -2.11378680E+00  2.42356590E+00 -6.56002800E-01 -2.15023140E+00
  2.44178820E+00 -2.13200910E+00 -2.31423210E+00  2.40534360E+00 -2.29600980E+00
  2.42356590E+00  2.42356590E+00  2.42356590E+00 -3.46223700E-01 -2.15023140E+00
 -6.56002800E-01 -3.28001400E-01 -2.31423210E+00  2.40534360E+00 -2.13200910E+00
 -2.11378680E+00 -3.09779100E-01 -2.15023140E+00 -2.29600980E+00  2.42356590E+00
  2.42356590E+00 -2.13200910E+00  2.44178820E+00 -3.09779100E-01 -2.15023140E+00
  2.44178820E+00  2.42356590E+00  2.42356590E+00 -3.28001400E-01 -2.13200910E+00
  2.44178820E+00 -3.46223700E-01 -2.11378680E+00  2.42356590E+00 -6.56002800E-01
 -2.15023140E+00  2.44178820E+00 -2.13200910E+00 -2.31423210E+00  2.40534360E+00
 -2.29600980E+00  2.42356590E+00  2.42356590E+00  2.42356590E+00 -3.46223700E-01
 -2.15023140E+00 -6.56002800E-01 -3.28001400E-01 -2.31423210E+00  2.40534360E+00
 -2.13200910E+00 -2.11378680E+00 -3.09779100E-01 -2.15023140E+00 -2.29600980E+00
  2.42356590E+00  2.42356590E+00 -2.13200910E+00  2.44178820E+00 -3.09779100E-01
 -2.15023140E+00  2.44178820E+00  2.42356590E+00  2.42356590E+00 -3.28001400E-01
 -2.13200910E+00  2.44178820E+00 -3.46223700E-01 -2.11378680E+00  2.42356590E+00
 -6.56002800E-01 -2.15023140E+00  2.44178820E+00 -2.13200910E+00 -2.31423210E+00
  2.40534360E+00 -2.29600980E+00  2.42356590E+00  2.42356590E+00  2.42356590E+00
 -3.46223700E-01 -2.15023140E+00 -6.56002800E-01 -3.28001400E-01 -2.31423210E+00
  2.40534360E+00 -2.13200910E+00 -2.11378680E+00 -3.09779100E-01 -2.15023140E+00
 -2.29600980E+00  2.42356590E+00  2.42356590E+00 -2.13200910E+00  2.44178820E+00
 -3.09779100E-01 -2.15023140E+00  2.44178820E+00  2.42356590E+00  2.42356590E+00
 -3.28001400E-01 -2.13200910E+00  2.44178820E+00 -3.46223700E-01 -2.11378680E+00
  2.42356590E+00 -6.56002800E-01 -2.15023140E+00  2.44178820E+00 -2.13200910E+00
 -2.31423210E+00  2.40534360E+00 -2.29600980E+00  2.42356590E+00  2.42356590E+00
  2.42356590E+00 -3.46223700E-01 -2.15023140E+00 -6.56002800E-01 -3.28001400E-01
 -2.31423210E+00  2.40534360E+00 -2.13200910E+00 -2.11378680E+00 -3.09779100E-01
 -2.15023140E+00 -2.29600980E+00  2.42356590E+00  2.42356590E+00 -2.13200910E+00
  2.44178820E+00 -3.09779100E-01 -2.15023140E+00  2.44178820E+00  2.42356590E+00
  2.42356590E+00 -3.28001400E-01 -2.13200910E+00  2.44178820E+00 -3.46223700E-01
 -2.11378680E+00  2.42356590E+00 -6.56002800E-01 -2.15023140E+00  2.44178820E+00
 -2.13200910E+00 -2.31423210E+00  2.40534360E+00 -2.29600980E+00  2.42356590E+00
  2.42356590E+00  2.42356590E+00 -3.46223700E-01 -2.15023140E+00 -6.56002800E-01
 -3.28001400E-01 -2.31423210E+00  2.40534360E+00 -2.13200910E+00 -2.11378680E+00
 -3.09779100E-01 -2.15023140E+00 -2.29600980E+00  2.42356590E+00  2.42356590E+00
 -2.13200910E+00  2.44178820E+00 -3.09779100E-01 -2.15023140E+00  2.44178820E+00
  2.42356590E+00  2.42356590E+00 -3.28001400E-01 -2.13200910E+00  2.44178820E+00
 -3.46223700E-01 -2.11378680E+00  2.42356590E+00 -6.56002800E-01 -2.15023140E+00
  2.44178820E+00 -2.13200910E+00 -2.31423210E+00  2.40534360E+00 -2.29600980E+00
  2.42356590E+00  2.42356590E+00  2.42356590E+00 -3.46223700E-01 -2.15023140E+00
 -6.56002800E-01 -3.28001400E-01 -2.31423210E+00  2.40534360E+00 -2.13200910E+00
 -2.11378680E+00 -3.09779100E-01 -2.15023140E+00 -2.29600980E+00  2.42356590E+00
  2.42356590E+00 -2.13200910E+00  2.44178820E+00 -3.09779100E-01 -2.15023140E+00
  2.44178820E+00  2.42356590E+00  2.42356590E+00 -3.28001400E-01 -2.13200910E+00
  2.44178820E+00 -3.46223700E-01 -2.11378680E+00  2.42356590E+00 -6.56002800E-01
 -2.15023140E+00  2.44178820E+00 -2.13200910E+00 -2.31423210E+00  2.40534360E+00
 -2.29600980E+00  2.42356590E+00  2.42356590E+00  2.42356590E+00 -3.46223700E-01
 -2.15023140E+00 -6.56002800E-01 -3.28001400E-01 -2.31423210E+00  2.40534360E+00
 -2.13200910E+00 -2.11378680E+00 -3.09779100E-01 -2.15023140E+00 -2.29600980E+00
  2.42356590E+00  2.42356590E+00 -2.13200910E+00  2.44178820E+00 -3.09779100E-01
 -2.15023140E+00  2.44178820E+00  2.42356590E+00  2.42356590E+00 -3.28001400E-01
 -2.13200910E+00  2.44178820E+00 -3.46223700E-01 -2.11378680E+00  2.42356590E+00
 -6.56002800E-01 -2.15023140E+00  2.44178820E+00 -2.13200910E+00 -2.31423210E+00
  2.40534360E+00 -2.29600980E+00  2.42356590E+00  2.42356590E+00  2.42356590E+00
 -3.46223700E-01 -2.15023140E+00 -6.56002800E-01 -3.28001400E-01 -2.31423210E+00
  2.40534360E+00 -2.13200910E+00 -2.11378680E+00 -3.09779100E-01 -2.15023140E+00
 -2.29600980E+00  2.42356590E+00  2.42356590E+00 -2.13200910E+00  2.44178820E+00
 -3.09779100E-01 -2.15023140E+00  2.44178820E+00  2.42356590E+00  2.42356590E+00
 -3.28001400E-01 -2.13200910E+00  2.44178820E+00 -3.46223700E-01 -2.11378680E+00
  2.42356590E+00 -6.56002800E-01 -2.15023140E+00  2.44178820E+00 -2.13200910E+00
 -2.31423210E+00  2.40534360E+00 -2.29600980E+00  2.42356590E+00  2.42356590E+00
  2.42356590E+00 -3.46223700E-01 -2.15023140E+00 -6.56002800E-01 -3.28001400E-01
 -2.31423210E+00  2.40534360E+00 -2.13200910E+00 -2.11378680E+00 -3.09779100E-01
 -2.15023140E+00 -2.29600980E+00  2.42356590E+00  2.42356590E+00 -2.13200910E+00
  2.44178820E+00 -3.09779100E-01 -2.15023140E+00  2.44178820E+00  2.42356590E+00
  2.42356590E+00 -3.28001400E-01 -2.13200910E+00  2.44178820E+00 -3.46223700E-01
 -2.11378680E+00  2.42356590E+00 -6.56002800E-01 -2.15023140E+00  2.44178820E+00
 -2.13200910E+00 -2.31423210E+00  2.40534360E+00 -2.29600980E+00  2.42356590E+00
  2.42356590E+00  2.42356590E+00 -3.46223700E-01 -2.15023140E+00 -6.56002800E-01
 -3.28001400E-01 -2.31423210E+00  2.40534360E+00 -2.13200910E+00 -2.11378680E+00
 -3.09779100E-01 -2.15023140E+00 -2.29600980E+00  2.42356590E+00  2.42356590E+00
 -2.13200910E+00  2.44178820E+00 -3.09779100E-01 -2.15023140E+00  2.44178820E+00
  2.42356590E+00  2.42356590E+00 -3.28001400E-01 -2.13200910E+00  2.44178820E+00
 -3.46223700E-01 -2.11378680E+00  2.42356590E+00 -6.56002800E-01 -2.15023140E+00
  2.44178820E+00 -2.13200910E+00 -2.31423210E+00  2.40534360E+00 -2.29600980E+00
  2.42356590E+00  2.42356590E+00  2.42356590E+00 -3.46223700E-01 -2.15023140E+00
 -6.56002800E-01 -3.28001400E-01 -2.31423210E+00  2.40534360E+00 -2.13200910E+00
 -2.11378680E+00 -3.09779100E-01 -2.15023140E+00 -2.29600980E+00  2.42356590E+00
  2.42356590E+00 -2.13200910E+00  2.44178820E+00 -3.09779100E-01 -2.15023140E+00
  2.44178820E+00  2.42356590E+00  2.42356590E+00 -3.28001400E-01 -2.13200910E+00
  2.44178820E+00 -3.46223700E-01 -2.11378680E+00  2.42356590E+00 -6.56002800E-01
 -2.15023140E+00  2.44178820E+00 -2.13200910E+00 -2.31423210E+00  2.40534360E+00
 -2.29600980E+00  2.42356590E+00  2.42356590E+00  2.42356590E+00 -3.46223700E-01
 -2.15023140E+00 -6.56002800E-01 -3.28001400E-01 -2.31423210E+00  2.40534360E+00
 -2.13200910E+00 -2.11378680E+00 -3.09779100E-01 -2.15023140E+00 -2.29600980E+00
  2.42356590E+00  2.42356590E+00 -2.13200910E+00  2.44178820E+00 -3.09779100E-01
 -2.15023140E+00  2.44178820E+00  2.42356590E+00  2.42356590E+00 -3.28001400E-01
 -2.13200910E+00  2.44178820E+00 -3.46223700E-01 -2.11378680E+00  2.42356590E+00
 -6.56002800E-01 -2.15023140E+00  2.44178820E+00 -2.13200910E+00 -2.31423210E+00
  2.40534360E+00 -2.29600980E+00  2.42356590E+00  2.42356590E+00  2.42356590E+00
 -3.46223700E-01 -2.15023140E+00 -6.56002800E-01 -3.28001400E-01 -2.31423210E+00
  2.40534360E+00 -2.13200910E+00 -2.11378680E+00 -3.09779100E-01 -2.15023140E+00
 -2.29600980E+00  2.42356590E+00  2.42356590E+00 -2.13200910E+00  2.44178820E+00
 -3.09779100E-01 -2.15023140E+00  2.44178820E+00  2.42356590E+00  2.42356590E+00
 -3.28001400E-01 -2.13200910E+00  2.44178820E+00 -3.46223700E-01 -2.11378680E+00
  2.42356590E+00 -6.56002800E-01 -2.15023140E+00  2.44178820E+00 -2.13200910E+00
 -2.31423210E+00  2.40534360E+00 -2.29600980E+00  2.42356590E+00  2.42356590E+00
  2.42356590E+00 -3.46223700E-01 -2.15023140E+00 -6.56002800E-01 -3.28001400E-01
 -2.31423210E+00  2.40534360E+00 -2.13200910E+00 -2.11378680E+00 -3.09779100E-01
 -2.15023140E+00 -2.29600980E+00  2.42356590E+00  2.42356590E+00 -2.13200910E+00
  2.44178820E+00 -3.09779100E-01 -2.15023140E+00  2.44178820E+00  2.42356590E+00
  2.42356590E+00 -3.28001400E-01 -2.13200910E+00  2.44178820E+00 -3.46223700E-01
 -2.11378680E+00  2.42356590E+00 -6.56002800E-01 -2.15023140E+00  2.44178820E+00
 -2.13200910E+00 -2.31423210E+00  2.40534360E+00 -2.29600980E+00  2.42356590E+00
  2.42356590E+00  2.42356590E+00 -3.46223700E-01 -2.15023140E+00 -6.56002800E-01
 -3.28001400E-01 -2.31423210E+00  2.40534360E+00 -2.13200910E+00 -2.11378680E+00
 -3.09779100E-01 -2.15023140E+00 -2.29600980E+00  2.42356590E+00  2.42356590E+00
 -2.13200910E+00  2.44178820E+00 -3.09779100E-01 -2.15023140E+00  2.44178820E+00
  2.42356590E+00  2.42356590E+00 -3.28001400E-01 -2.13200910E+00  2.44178820E+00
 -3.46223700E-01 -2.11378680E+00  2.42356590E+00 -6.56002800E-01 -2.15023140E+00
  2.44178820E+00 -2.13200910E+00 -2.31423210E+00  2.40534360E+00 -2.29600980E+00
  2.42356590E+00  2.42356590E+00  2.42356590E+00 -3.46223700E-01 -2.15023140E+00
 -6.56002800E-01 -3.28001400E-01 -2.31423210E+00  2.40534360E+00 -2.13200910E+00
 -2.11378680E+00 -3.09779100E-01 -2.15023140E+00 -2.29600980E+00  2.42356590E+00
  2.42356590E+00 -2.13200910E+00  2.44178820E+00 -3.09779100E-01 -2.15023140E+00
  2.44178820E+00  2.42356590E+00  2.42356590E+00 -3.28001400E-01 -2.13200910E+00
  2.44178820E+00 -3.46223700E-01 -2.11378680E+00  2.42356590E+00 -6.56002800E-01
 -2.15023140E+00  2.44178820E+00 -2.13200910E+00 -2.31423210E+00  2.40534360E+00
 -2.29600980E+00  2.42356590E+00  2.42356590E+00  2.42356590E+00 -3.46223700E-01
 -2.15023140E+00 -6.56002800E-01 -3.28001400E-01 -2.31423210E+00  2.40534360E+00
 -2.13200910E+00 -2.11378680E+00 -3.09779100E-01 -2.15023140E+00 -2.29600980E+00
  2.42356590E+00  2.42356590E+00 -2.13200910E+00  2.44178820E+00 -3.09779100E-01
 -2.15023140E+00  2.44178820E+00  2.42356590E+00  2.42356590E+00 -3.28001400E-01
 -2.13200910E+00  2.44178820E+00 -3.46223700E-01 -2.11378680E+00  2.42356590E+00
 -6.56002800E-01 -2.15023140E+00  2.44178820E+00 -2.13200910E+00 -2.31423210E+00
  2.40534360E+00 -2.29600980E+00  2.42356590E+00  2.42356590E+00  2.42356590E+00
 -3.46223700E-01 -2.15023140E+00 -6.56002800E-01 -3.28001400E-01 -2.31423210E+00
  2.40534360E+00 -2.13200910E+00 -2.11378680E+00 -3.09779100E-01 -2.15023140E+00
 -2.29600980E+00  2.42356590E+00  2.42356590E+00 -2.13200910E+00  2.44178820E+00
 -3.09779100E-01 -2.15023140E+00  2.44178820E+00  2.42356590E+00  2.42356590E+00
 -3.28001400E-01 -2.13200910E+00  2.44178820E+00 -3.46223700E-01 -2.11378680E+00
  2.42356590E+00 -6.56002800E-01 -2.15023140E+00  2.44178820E+00 -2.13200910E+00
 -2.31423210E+00  2.40534360E+00 -2.29600980E+00  2.42356590E+00  2.42356590E+00
  2.42356590E+00 -3.46223700E-01 -2.15023140E+00 -6.56002800E-01 -3.28001400E-01
 -2.31423210E+00  2.40534360E+00 -2.13200910E+00 -2.11378680E+00 -3.09779100E-01
 -2.15023140E+00 -2.29600980E+00  2.42356590E+00  2.42356590E+00 -2.13200910E+00
  2.44178820E+00 -3.09779100E-01 -2.15023140E+00  2.44178820E+00  2.42356590E+00
  2.42356590E+00 -3.28001400E-01 -2.13200910E+00  2.44178820E+00 -3.46223700E-01
 -2.11378680E+00  2.42356590E+00 -6.56002800E-01 -2.15023140E+00  2.44178820E+00
 -2.13200910E+00 -2.31423210E+00  2.40534360E+00 -2.29600980E+00  2.42356590E+00
  2.42356590E+00  2.42356590E+00 -3.46223700E-01 -2.15023140E+00 -6.56002800E-01
 -3.28001400E-01 -2.31423210E+00  2.40534360E+00 -2.13200910E+00 -2.11378680E+00
 -3.09779100E-01 -2.15023140E+00 -2.29600980E+00  2.42356590E+00  2.42356590E+00
 -2.13200910E+00  2.44178820E+00 -3.09779100E-01 -2.15023140E+00  2.44178820E+00
  2.42356590E+00  2.42356590E+00 -3.28001400E-01 -2.13200910E+00  2.44178820E+00
 -3.46223700E-01 -2.11378680E+00  2.42356590E+00 -6.56002800E-01 -2.15023140E+00
  2.44178820E+00 -2.13200910E+00 -2.31423210E+00  2.40534360E+00 -2.29600980E+00
  2.42356590E+00  2.42356590E+00  2.42356590E+00 -3.46223700E-01 -2.15023140E+00
 -6.56002800E-01 -3.28001400E-01 -2.31423210E+00  2.40534360E+00 -2.13200910E+00
 -2.11378680E+00 -3.09779100E-01 -2.15023140E+00 -2.29600980E+00  2.42356590E+00
  2.42356590E+00 -2.13200910E+00  2.44178820E+00 -3.09779100E-01 -2.15023140E+00
  2.44178820E+00  2.42356590E+00  2.42356590E+00 -3.28001400E-01 -2.13200910E+00
  2.44178820E+00 -3.46223700E-01 -2.11378680E+00  2.42356590E+00 -6.56002800E-01
 -2.15023140E+00  2.44178820E+00 -2.13200910E+00 -2.31423210E+00  2.40534360E+00
 -2.29600980E+00  2.42356590E+00  2.42356590E+00  2.42356590E+00 -3.46223700E-01
 -2.15023140E+00 -6.56002800E-01 -3.28001400E-01 -2.31423210E+00  2.40534360E+00
 -2.13200910E+00 -2.11378680E+00 -3.09779100E-01 -2.15023140E+00 -2.29600980E+00
  2.42356590E+00  2.42356590E+00 -2.13200910E+00  2.44178820E+00 -3.09779100E-01
 -2.15023140E+00  2.44178820E+00  2.42356590E+00  2.42356590E+00 -3.28001400E-01
 -2.13200910E+00  2.44178820E+00 -3.46223700E-01 -2.11378680E+00  2.42356590E+00
 -6.56002800E-01 -2.15023140E+00  2.44178820E+00 -2.13200910E+00 -2.31423210E+00
  2.40534360E+00 -2.29600980E+00  2.42356590E+00  2.42356590E+00  2.42356590E+00
 -3.46223700E-01 -2.15023140E+00 -6.56002800E-01 -3.28001400E-01 -2.31423210E+00
  2.40534360E+00 -2.13200910E+00 -2.11378680E+00 -3.09779100E-01 -2.15023140E+00
 -2.29600980E+00  2.42356590E+00  2.42356590E+00 -2.13200910E+00  2.44178820E+00
 -3.09779100E-01 -2.15023140E+00  2.44178820E+00  2.42356590E+00  2.42356590E+00
 -3.28001400E-01 -2.13200910E+00  2.44178820E+00 -3.46223700E-01 -2.11378680E+00
  2.42356590E+00 -6.56002800E-01 -2.15023140E+00  2.44178820E+00 -2.13200910E+00
 -2.31423210E+00  2.40534360E+00 -2.29600980E+00  2.42356590E+00  2.42356590E+00
  2.42356590E+00 -3.46223700E-01 -2.15023140E+00 -6.56002800E-01 -3.28001400E-01
 -2.31423210E+00  2.40534360E+00 -2.13200910E+00 -2.11378680E+00 -3.09779100E-01
 -2.15023140E+00 -2.29600980E+00  2.42356590E+00  2.42356590E+00 -2.13200910E+00
  2.44178820E+00 -3.09779100E-01 -2.15023140E+00  2.44178820E+00  2.42356590E+00
  2.42356590E+00 -3.28001400E-01 -2.13200910E+00  2.44178820E+00 -3.46223700E-01
 -2.11378680E+00  2.42356590E+00 -6.56002800E-01 -2.15023140E+00  2.44178820E+00
 -2.13200910E+00 -2.31423210E+00  2.40534360E+00 -2.29600980E+00  2.42356590E+00
  2.42356590E+00  2.42356590E+00 -3.46223700E-01 -2.15023140E+00 -6.56002800E-01
 -3.28001400E-01 -2.31423210E+00  2.40534360E+00 -2.13200910E+00 -2.11378680E+00
 -3.09779100E-01 -2.15023140E+00 -2.29600980E+00  2.42356590E+00  2.42356590E+00
 -2.13200910E+00  2.44178820E+00 -3.09779100E-01 -2.15023140E+00  2.44178820E+00
  2.42356590E+00  2.42356590E+00 -3.28001400E-01 -2.13200910E+00  2.44178820E+00
 -3.46223700E-01 -2.11378680E+00  2.42356590E+00 -6.56002800E-01 -2.15023140E+00
  2.44178820E+00 -2.13200910E+00 -2.31423210E+00  2.40534360E+00 -2.29600980E+00
  2.42356590E+00  2.42356590E+00  2.42356590E+00 -3.46223700E-01 -2.15023140E+00
 -6.56002800E-01 -3.28001400E-01 -2.31423210E+00  2.40534360E+00 -2.13200910E+00
 -2.11378680E+00 -3.09779100E-01 -2.15023140E+00 -2.29600980E+00  2.42356590E+00
  2.42356590E+00 -2.13200910E+00  2.44178820E+00 -3.09779100E-01 -2.15023140E+00
  2.44178820E+00  2.42356590E+00  2.42356590E+00 -3.28001400E-01 -2.13200910E+00
  2.44178820E+00 -3.46223700E-01 -2.11378680E+00  2.42356590E+00 -6.56002800E-01
 -2.15023140E+00  2.44178820E+00 -2.13200910E+00 -2.31423210E+00  2.40534360E+00
 -2.29600980E+00  2.42356590E+00  2.42356590E+00  2.42356590E+00 -3.46223700E-01
 -2.15023140E+00 -6.56002800E-01 -3.28001400E-01 -2.31423210E+00  2.40534360E+00
 -2.13200910E+00 -2.11378680E+00 -3.09779100E-01 -2.15023140E+00 -2.29600980E+00
  2.42356590E+00  2.42356590E+00 -2.13200910E+00  2.44178820E+00 -3.09779100E-01
 -2.15023140E+00  2.44178820E+00  2.42356590E+00  2.42356590E+00 -3.28001400E-01
 -2.13200910E+00  2.44178820E+00 -3.46223700E-01 -2.11378680E+00  2.42356590E+00
 -6.56002800E-01 -2.15023140E+00  2.44178820E+00 -2.13200910E+00 -2.31423210E+00
  2.40534360E+00 -2.29600980E+00  2.42356590E+00  2.42356590E+00  2.42356590E+00
 -3.46223700E-01 -2.15023140E+00 -6.56002800E-01 -3.28001400E-01 -2.31423210E+00
  2.40534360E+00 -2.13200910E+00 -2.11378680E+00 -3.09779100E-01 -2.15023140E+00
 -2.29600980E+00  2.42356590E+00  2.42356590E+00 -2.13200910E+00  2.44178820E+00
 -3.09779100E-01 -2.15023140E+00  2.44178820E+00  2.42356590E+00  2.42356590E+00
 -3.28001400E-01 -2.13200910E+00  2.44178820E+00 -3.46223700E-01 -2.11378680E+00
  2.42356590E+00 -6.56002800E-01 -2.15023140E+00  2.44178820E+00 -2.13200910E+00
 -2.31423210E+00  2.40534360E+00 -2.29600980E+00  2.42356590E+00  2.42356590E+00
  2.42356590E+00 -3.46223700E-01 -2.15023140E+00 -6.56002800E-01 -3.28001400E-01
 -2.31423210E+00  2.40534360E+00 -2.13200910E+00 -2.11378680E+00 -3.09779100E-01
 -2.15023140E+00 -2.29600980E+00  2.42356590E+00  2.42356590E+00 -2.13200910E+00
  2.44178820E+00 -3.09779100E-01 -2.15023140E+00  2.44178820E+00  2.42356590E+00
  2.42356590E+00 -3.28001400E-01 -2.13200910E+00  2.44178820E+00 -3.46223700E-01
 -2.11378680E+00  2.42356590E+00 -6.56002800E-01 -2.15023140E+00  2.44178820E+00
 -2.13200910E+00 -2.31423210E+00  2.40534360E+00 -2.29600980E+00  2.42356590E+00
  2.42356590E+00  2.42356590E+00 -3.46223700E-01 -2.15023140E+00 -6.56002800E-01
 -3.28001400E-01 -2.31423210E+00  2.40534360E+00 -2.13200910E+00 -2.11378680E+00
 -3.09779100E-01 -2.15023140E+00 -2.29600980E+00  2.42356590E+00  2.42356590E+00
 -2.13200910E+00  2.44178820E+00 -3.09779100E-01 -2.15023140E+00  2.44178820E+00
  2.42356590E+00  2.42356590E+00 -3.28001400E-01 -2.13200910E+00  2.44178820E+00
 -3.46223700E-01 -2.11378680E+00  2.42356590E+00 -6.56002800E-01 -2.15023140E+00
  2.44178820E+00 -2.13200910E+00 -2.31423210E+00  2.40534360E+00 -2.29600980E+00
  2.42356590E+00  2.42356590E+00  2.42356590E+00 -3.46223700E-01 -2.15023140E+00
 -6.56002800E-01 -3.28001400E-01 -2.31423210E+00  2.40534360E+00 -2.13200910E+00
 -2.11378680E+00 -3.09779100E-01 -2.15023140E+00 -2.29600980E+00  2.42356590E+00
  2.42356590E+00 -2.13200910E+00  2.44178820E+00 -3.09779100E-01 -2.15023140E+00
  2.44178820E+00  2.42356590E+00  2.42356590E+00 -3.28001400E-01 -2.13200910E+00
  2.44178820E+00 -3.46223700E-01 -2.11378680E+00  2.42356590E+00 -6.56002800E-01
 -2.15023140E+00  2.44178820E+00 -2.13200910E+00 -2.31423210E+00  2.40534360E+00
 -2.29600980E+00  2.42356590E+00  2.42356590E+00  2.42356590E+00 -3.46223700E-01
 -2.15023140E+00 -6.56002800E-01 -3.28001400E-01 -2.31423210E+00  2.40534360E+00
 -2.13200910E+00 -2.11378680E+00 -3.09779100E-01 -2.15023140E+00 -2.29600980E+00
  2.42356590E+00  2.42356590E+00 -2.13200910E+00  2.44178820E+00 -3.09779100E-01
 -2.15023140E+00  2.44178820E+00  2.42356590E+00  2.42356590E+00 -3.28001400E-01
 -2.13200910E+00  2.44178820E+00 -3.46223700E-01 -2.11378680E+00  2.42356590E+00
 -6.56002800E-01 -2.15023140E+00  2.44178820E+00 -2.13200910E+00 -2.31423210E+00
  2.40534360E+00 -2.29600980E+00  2.42356590E+00  2.42356590E+00  2.42356590E+00
 -3.46223700E-01 -2.15023140E+00 -6.56002800E-01 -3.28001400E-01 -2.31423210E+00
  2.40534360E+00 -2.13200910E+00 -2.11378680E+00 -3.09779100E-01 -2.15023140E+00
 -2.29600980E+00  2.42356590E+00  2.42356590E+00 -2.13200910E+00  2.44178820E+00
 -3.09779100E-01 -2.15023140E+00  2.44178820E+00  2.42356590E+00  2.42356590E+00
 -3.28001400E-01 -2.13200910E+00  2.44178820E+00 -3.46223700E-01 -2.11378680E+00
  2.42356590E+00 -6.56002800E-01 -2.15023140E+00  2.44178820E+00 -2.13200910E+00
 -2.31423210E+00  2.40534360E+00 -2.29600980E+00  2.42356590E+00  2.42356590E+00
  2.42356590E+00 -3.46223700E-01 -2.15023140E+00 -6.56002800E-01 -3.28001400E-01
 -2.31423210E+00  2.40534360E+00 -2.13200910E+00 -2.11378680E+00 -3.09779100E-01
 -2.15023140E+00 -2.29600980E+00  2.42356590E+00  2.42356590E+00 -2.13200910E+00
  2.44178820E+00 -3.09779100E-01 -2.15023140E+00  2.44178820E+00  2.42356590E+00
  2.42356590E+00 -3.28001400E-01 -2.13200910E+00  2.44178820E+00 -3.46223700E-01
 -2.11378680E+00  2.42356590E+00 -6.56002800E-01 -2.15023140E+00  2.44178820E+00
 -2.13200910E+00 -2.31423210E+00  2.40534360E+00 -2.29600980E+00  2.42356590E+00
  2.42356590E+00  2.42356590E+00 -3.46223700E-01 -2.15023140E+00 -6.56002800E-01
 -3.28001400E-01 -2.31423210E+00  2.40534360E+00 -2.13200910E+00 -2.11378680E+00
 -3.09779100E-01 -2.15023140E+00 -2.29600980E+00  2.42356590E+00  2.42356590E+00
 -2.13200910E+00  2.44178820E+00 -3.09779100E-01 -2.15023140E+00  2.44178820E+00
  2.42356590E+00  2.42356590E+00 -3.28001400E-01 -2.13200910E+00  2.44178820E+00
 -3.46223700E-01 -2.11378680E+00  2.42356590E+00 -6.56002800E-01 -2.15023140E+00
  2.44178820E+00 -2.13200910E+00 -2.31423210E+00  2.40534360E+00 -2.29600980E+00
  2.42356590E+00  2.42356590E+00  2.42356590E+00 -3.46223700E-01 -2.15023140E+00
 -6.56002800E-01 -3.28001400E-01 -2.31423210E+00  2.40534360E+00 -2.13200910E+00
 -2.11378680E+00 -3.09779100E-01 -2.15023140E+00 -2.29600980E+00  2.42356590E+00
  2.42356590E+00 -2.13200910E+00  2.44178820E+00 -3.09779100E-01 -2.15023140E+00
  2.44178820E+00  2.42356590E+00  2.42356590E+00 -3.28001400E-01 -2.13200910E+00
  2.44178820E+00 -3.46223700E-01 -2.11378680E+00  2.42356590E+00 -6.56002800E-01
 -2.15023140E+00  2.44178820E+00 -2.13200910E+00 -2.31423210E+00  2.40534360E+00
 -2.29600980E+00  2.42356590E+00  2.42356590E+00  2.42356590E+00 -3.46223700E-01
 -2.15023140E+00 -6.56002800E-01 -3.28001400E-01 -2.31423210E+00  2.40534360E+00
 -2.13200910E+00 -2.11378680E+00 -3.09779100E-01 -2.15023140E+00 -2.29600980E+00
  2.42356590E+00  2.42356590E+00 -2.13200910E+00  2.44178820E+00 -3.09779100E-01
 -2.15023140E+00  2.44178820E+00  2.42356590E+00  2.42356590E+00 -3.28001400E-01
 -2.13200910E+00  2.44178820E+00 -3.46223700E-01 -2.11378680E+00  2.42356590E+00
 -6.56002800E-01 -2.15023140E+00  2.44178820E+00 -2.13200910E+00 -2.31423210E+00
  2.40534360E+00 -2.29600980E+00  2.42356590E+00  2.42356590E+00  2.42356590E+00
 -3.46223700E-01 -2.15023140E+00 -6.56002800E-01 -3.28001400E-01 -2.31423210E+00
  2.40534360E+00 -2.13200910E+00 -2.11378680E+00 -3.09779100E-01 -2.15023140E+00
 -2.29600980E+00  2.42356590E+00  2.42356590E+00 -2.13200910E+00  2.44178820E+00
 -3.09779100E-01 -2.15023140E+00  2.44178820E+00  2.42356590E+00  2.42356590E+00
 -3.28001400E-01 -2.13200910E+00  2.44178820E+00 -3.46223700E-01 -2.11378680E+00
  2.42356590E+00 -6.56002800E-01 -2.15023140E+00  2.44178820E+00 -2.13200910E+00
 -2.31423210E+00  2.40534360E+00 -2.29600980E+00  2.42356590E+00  2.42356590E+00
  2.42356590E+00 -3.46223700E-01 -2.15023140E+00 -6.56002800E-01 -3.28001400E-01
 -2.31423210E+00  2.40534360E+00 -2.13200910E+00 -2.11378680E+00 -3.09779100E-01
 -2.15023140E+00 -2.29600980E+00  2.42356590E+00  2.42356590E+00 -2.13200910E+00
  2.44178820E+00 -3.09779100E-01 -2.15023140E+00  2.44178820E+00  2.42356590E+00
  2.42356590E+00 -3.28001400E-01 -2.13200910E+00  2.44178820E+00 -3.46223700E-01
 -2.11378680E+00  2.42356590E+00 -6.56002800E-01 -2.15023140E+00  2.44178820E+00
 -2.13200910E+00 -2.31423210E+00  2.40534360E+00 -2.29600980E+00  2.42356590E+00
  2.42356590E+00  2.42356590E+00 -3.46223700E-01 -2.15023140E+00 -6.56002800E-01
 -3.28001400E-01 -2.31423210E+00  2.40534360E+00 -2.13200910E+00 -2.11378680E+00
 -3.09779100E-01 -2.15023140E+00 -2.29600980E+00  2.42356590E+00  2.42356590E+00
 -2.13200910E+00  2.44178820E+00 -3.09779100E-01 -2.15023140E+00  2.44178820E+00
  2.42356590E+00  2.42356590E+00 -3.28001400E-01 -2.13200910E+00  2.44178820E+00
 -3.46223700E-01 -2.11378680E+00  2.42356590E+00 -6.56002800E-01 -2.15023140E+00
  2.44178820E+00 -2.13200910E+00 -2.31423210E+00  2.40534360E+00 -2.29600980E+00
  2.42356590E+00  2.42356590E+00  2.42356590E+00 -3.46223700E-01 -2.15023140E+00
 -6.56002800E-01 -3.28001400E-01 -2.31423210E+00  2.40534360E+00 -2.13200910E+00
 -2.11378680E+00 -3.09779100E-01 -2.15023140E+00 -2.29600980E+00  2.42356590E+00
  2.42356590E+00 -2.13200910E+00  2.44178820E+00 -3.09779100E-01 -2.15023140E+00
  2.44178820E+00  2.42356590E+00  2.42356590E+00 -3.28001400E-01 -2.13200910E+00
  2.44178820E+00 -3.46223700E-01 -2.11378680E+00  2.42356590E+00 -6.56002800E-01
 -2.15023140E+00  2.44178820E+00 -2.13200910E+00 -2.31423210E+00  2.40534360E+00
 -2.29600980E+00  2.42356590E+00  2.42356590E+00  2.42356590E+00 -3.46223700E-01
 -2.15023140E+00 -6.56002800E-01 -3.28001400E-01 -2.31423210E+00  2.40534360E+00
 -2.13200910E+00 -2.11378680E+00 -3.09779100E-01 -2.15023140E+00 -2.29600980E+00
  2.42356590E+00  2.42356590E+00 -2.13200910E+00  2.44178820E+00 -3.09779100E-01
 -2.15023140E+00  2.44178820E+00  2.42356590E+00  2.42356590E+00 -3.28001400E-01
 -2.13200910E+00  2.44178820E+00 -3.46223700E-01 -2.11378680E+00  2.42356590E+00
 -6.56002800E-01 -2.15023140E+00  2.44178820E+00 -2.13200910E+00 -2.31423210E+00
  2.40534360E+00 -2.29600980E+00  2.42356590E+00  2.42356590E+00  2.42356590E+00
 -3.46223700E-01 -2.15023140E+00 -6.56002800E-01 -3.28001400E-01 -2.31423210E+00
  2.40534360E+00 -2.13200910E+00 -2.11378680E+00 -3.09779100E-01 -2.15023140E+00
 -2.29600980E+00  2.42356590E+00  2.42356590E+00 -2.13200910E+00  2.44178820E+00
 -3.09779100E-01 -2.15023140E+00  2.44178820E+00  2.42356590E+00  2.42356590E+00
 -3.28001400E-01 -2.13200910E+00  2.44178820E+00 -3.46223700E-01 -2.11378680E+00
  2.42356590E+00 -6.56002800E-01 -2.15023140E+00  2.44178820E+00 -2.13200910E+00
 -2.31423210E+00  2.40534360E+00 -2.29600980E+00  2.42356590E+00  2.42356590E+00
  2.42356590E+00 -3.46223700E-01 -2.15023140E+00 -6.56002800E-01 -3.28001400E-01
 -2.31423210E+00  2.40534360E+00 -2.13200910E+00 -2.11378680E+00 -3.09779100E-01
 -2.15023140E+00 -2.29600980E+00  2.42356590E+00  2.42356590E+00 -2.13200910E+00
  2.44178820E+00 -3.09779100E-01 -2.15023140E+00  2.44178820E+00  2.42356590E+00
  2.42356590E+00 -3.28001400E-01 -2.13200910E+00  2.44178820E+00 -3.46223700E-01
 -2.11378680E+00  2.42356590E+00 -6.56002800E-01 -2.15023140E+00  2.44178820E+00
 -2.13200910E+00 -2.31423210E+00  2.40534360E+00 -2.29600980E+00  2.42356590E+00
  2.42356590E+00  2.42356590E+00 -3.46223700E-01 -2.15023140E+00 -6.56002800E-01
 -3.28001400E-01 -2.31423210E+00  2.40534360E+00 -2.13200910E+00 -2.11378680E+00
 -3.09779100E-01 -2.15023140E+00 -2.29600980E+00  2.42356590E+00  2.42356590E+00
 -2.13200910E+00  2.44178820E+00 -3.09779100E-01 -2.15023140E+00  2.44178820E+00
  2.42356590E+00  2.42356590E+00 -3.28001400E-01 -2.13200910E+00  2.44178820E+00
 -3.46223700E-01 -2.11378680E+00  2.42356590E+00 -6.56002800E-01 -2.15023140E+00
  2.44178820E+00 -2.13200910E+00 -2.31423210E+00  2.40534360E+00 -2.29600980E+00
  2.42356590E+00  2.42356590E+00  2.42356590E+00 -3.46223700E-01 -2.15023140E+00
 -6.56002800E-01 -3.28001400E-01 -2.31423210E+00  2.40534360E+00 -2.13200910E+00
 -2.11378680E+00 -3.09779100E-01 -2.15023140E+00 -2.29600980E+00  2.42356590E+00
  2.42356590E+00 -2.13200910E+00  2.44178820E+00 -3.09779100E-01 -2.15023140E+00
  2.44178820E+00  2.42356590E+00  2.42356590E+00 -3.28001400E-01 -2.13200910E+00
  2.44178820E+00 -3.46223700E-01 -2.11378680E+00  2.42356590E+00 -6.56002800E-01
 -2.15023140E+00  2.44178820E+00 -2.13200910E+00 -2.31423210E+00  2.40534360E+00
 -2.29600980E+00  2.42356590E+00  2.42356590E+00  2.42356590E+00 -3.46223700E-01
 -2.15023140E+00 -6.56002800E-01 -3.28001400E-01 -2.31423210E+00  2.40534360E+00
 -2.13200910E+00 -2.11378680E+00 -3.09779100E-01 -2.15023140E+00 -2.29600980E+00
  2.42356590E+00  2.42356590E+00 -2.13200910E+00  2.44178820E+00 -3.09779100E-01
 -2.15023140E+00  2.44178820E+00  2.42356590E+00  2.42356590E+00 -3.28001400E-01
 -2.13200910E+00  2.44178820E+00 -3.46223700E-01 -2.11378680E+00  2.42356590E+00
 -6.56002800E-01 -2.15023140E+00  2.44178820E+00 -2.13200910E+00 -2.31423210E+00
  2.40534360E+00 -2.29600980E+00  2.42356590E+00  2.42356590E+00  2.42356590E+00
 -3.46223700E-01 -2.15023140E+00 -6.56002800E-01 -3.28001400E-01 -2.31423210E+00
  2.40534360E+00 -2.13200910E+00 -2.11378680E+00 -3.09779100E-01 -2.15023140E+00
 -2.29600980E+00  2.42356590E+00  2.42356590E+00 -2.13200910E+00  2.44178820E+00
 -3.09779100E-01 -2.15023140E+00  2.44178820E+00  2.42356590E+00  2.42356590E+00
 -3.28001400E-01 -2.13200910E+00  2.44178820E+00 -3.46223700E-01 -2.11378680E+00
  2.42356590E+00 -6.56002800E-01 -2.15023140E+00  2.44178820E+00 -2.13200910E+00
 -2.31423210E+00  2.40534360E+00 -2.29600980E+00  2.42356590E+00  2.42356590E+00
  2.42356590E+00 -3.46223700E-01 -2.15023140E+00 -6.56002800E-01 -3.28001400E-01
 -2.31423210E+00  2.40534360E+00 -2.13200910E+00 -2.11378680E+00 -3.09779100E-01
 -2.15023140E+00 -2.29600980E+00  2.42356590E+00  2.42356590E+00 -2.13200910E+00
  2.44178820E+00 -3.09779100E-01 -2.15023140E+00  2.44178820E+00  2.42356590E+00
  2.42356590E+00 -3.28001400E-01 -2.13200910E+00  2.44178820E+00 -3.46223700E-01
 -2.11378680E+00  2.42356590E+00 -6.56002800E-01 -2.15023140E+00  2.44178820E+00
 -2.13200910E+00 -2.31423210E+00  2.40534360E+00 -2.29600980E+00  2.42356590E+00
  2.42356590E+00  2.42356590E+00 -3.46223700E-01 -2.15023140E+00 -6.56002800E-01
 -3.28001400E-01 -2.31423210E+00  2.40534360E+00 -2.13200910E+00 -2.11378680E+00
 -3.09779100E-01 -2.15023140E+00 -2.29600980E+00  2.42356590E+00  2.42356590E+00
 -2.13200910E+00  2.44178820E+00 -3.09779100E-01 -2.15023140E+00  2.44178820E+00
  2.42356590E+00  2.42356590E+00 -3.28001400E-01 -2.13200910E+00  2.44178820E+00
 -3.46223700E-01 -2.11378680E+00  2.42356590E+00 -6.56002800E-01 -2.15023140E+00
  2.44178820E+00 -2.13200910E+00 -2.31423210E+00  2.40534360E+00 -2.29600980E+00
  2.42356590E+00  2.42356590E+00  2.42356590E+00 -3.46223700E-01 -2.15023140E+00
 -6.56002800E-01 -3.28001400E-01 -2.31423210E+00  2.40534360E+00 -2.13200910E+00
 -2.11378680E+00 -3.09779100E-01 -2.15023140E+00 -2.29600980E+00  2.42356590E+00
  2.42356590E+00 -2.13200910E+00  2.44178820E+00 -3.09779100E-01 -2.15023140E+00
  2.44178820E+00  2.42356590E+00  2.42356590E+00 -3.28001400E-01 -2.13200910E+00
  2.44178820E+00 -3.46223700E-01 -2.11378680E+00  2.42356590E+00 -6.56002800E-01
 -2.15023140E+00  2.44178820E+00 -2.13200910E+00 -2.31423210E+00  2.40534360E+00
 -2.29600980E+00  2.42356590E+00  2.42356590E+00  2.42356590E+00 -3.46223700E-01
 -2.15023140E+00 -6.56002800E-01 -3.28001400E-01 -2.31423210E+00  2.40534360E+00
 -2.13200910E+00 -2.11378680E+00 -3.09779100E-01 -2.15023140E+00 -2.29600980E+00
  2.42356590E+00  2.42356590E+00 -2.13200910E+00  2.44178820E+00 -3.09779100E-01
 -2.15023140E+00  2.44178820E+00  2.42356590E+00  2.42356590E+00 -3.28001400E-01
 -2.13200910E+00  2.44178820E+00 -3.46223700E-01 -2.11378680E+00  2.42356590E+00
 -6.56002800E-01 -2.15023140E+00  2.44178820E+00 -2.13200910E+00 -2.31423210E+00
  2.40534360E+00 -2.29600980E+00  2.42356590E+00  2.42356590E+00  2.42356590E+00
 -3.46223700E-01 -2.15023140E+00 -6.56002800E-01 -3.28001400E-01 -2.31423210E+00
  2.40534360E+00 -2.13200910E+00 -2.11378680E+00 -3.09779100E-01 -2.15023140E+00
 -2.29600980E+00  2.42356590E+00  2.42356590E+00 -2.13200910E+00  2.44178820E+00
 -3.09779100E-01 -2.15023140E+00  2.44178820E+00  2.42356590E+00  2.42356590E+00
 -3.28001400E-01 -2.13200910E+00  2.44178820E+00 -3.46223700E-01 -2.11378680E+00
  2.42356590E+00 -6.56002800E-01 -2.15023140E+00  2.44178820E+00 -2.13200910E+00
 -2.31423210E+00  2.40534360E+00 -2.29600980E+00  2.42356590E+00  2.42356590E+00
  2.42356590E+00 -3.46223700E-01 -2.15023140E+00 -6.56002800E-01 -3.28001400E-01
 -2.31423210E+00  2.40534360E+00 -2.13200910E+00 -2.11378680E+00 -3.09779100E-01
 -2.15023140E+00 -2.29600980E+00  2.42356590E+00  2.42356590E+00 -2.13200910E+00
  2.44178820E+00 -3.09779100E-01 -2.15023140E+00  2.44178820E+00  2.42356590E+00
  2.42356590E+00 -3.28001400E-01 -2.13200910E+00  2.44178820E+00 -3.46223700E-01
 -2.11378680E+00  2.42356590E+00 -6.56002800E-01 -2.15023140E+00  2.44178820E+00
 -2.13200910E+00 -2.31423210E+00  2.40534360E+00 -2.29600980E+00  2.42356590E+00
  2.42356590E+00  2.42356590E+00 -3.46223700E-01 -2.15023140E+00 -6.56002800E-01
 -3.28001400E-01 -2.31423210E+00  2.40534360E+00 -2.13200910E+00 -2.11378680E+00
 -3.09779100E-01 -2.15023140E+00 -2.29600980E+00  2.42356590E+00  2.42356590E+00
 -2.13200910E+00  2.44178820E+00 -3.09779100E-01 -2.15023140E+00  2.44178820E+00
  2.42356590E+00  2.42356590E+00 -3.28001400E-01 -2.13200910E+00  2.44178820E+00
 -3.46223700E-01 -2.11378680E+00  2.42356590E+00 -6.56002800E-01 -2.15023140E+00
  2.44178820E+00 -2.13200910E+00 -2.31423210E+00  2.40534360E+00 -2.29600980E+00
  2.42356590E+00  2.42356590E+00  2.42356590E+00 -3.46223700E-01 -2.15023140E+00
 -6.56002800E-01 -3.28001400E-01 -2.31423210E+00  2.40534360E+00 -2.13200910E+00
 -2.11378680E+00 -3.09779100E-01 -2.15023140E+00 -2.29600980E+00  2.42356590E+00
  2.42356590E+00 -2.13200910E+00  2.44178820E+00 -3.09779100E-01 -2.15023140E+00
  2.44178820E+00  2.42356590E+00  2.42356590E+00 -3.28001400E-01 -2.13200910E+00
  2.44178820E+00 -3.46223700E-01 -2.11378680E+00  2.42356590E+00 -6.56002800E-01
 -2.15023140E+00  2.44178820E+00 -2.13200910E+00 -2.31423210E+00  2.40534360E+00
 -2.29600980E+00  2.42356590E+00  2.42356590E+00  2.42356590E+00 -3.46223700E-01
 -2.15023140E+00 -6.56002800E-01 -3.28001400E-01 -2.31423210E+00  2.40534360E+00
 -2.13200910E+00 -2.11378680E+00 -3.09779100E-01 -2.15023140E+00 -2.29600980E+00
  2.42356590E+00  2.42356590E+00 -2.13200910E+00  2.44178820E+00 -3.09779100E-01
 -2.15023140E+00  2.44178820E+00  2.42356590E+00  2.42356590E+00 -3.28001400E-01
 -2.13200910E+00  2.44178820E+00 -3.46223700E-01 -2.11378680E+00  2.42356590E+00
 -6.56002800E-01 -2.15023140E+00  2.44178820E+00 -2.13200910E+00 -2.31423210E+00
  2.40534360E+00 -2.29600980E+00  2.42356590E+00  2.42356590E+00  2.42356590E+00
 -3.46223700E-01 -2.15023140E+00 -6.56002800E-01 -3.28001400E-01 -2.31423210E+00
  2.40534360E+00 -2.13200910E+00 -2.11378680E+00 -3.09779100E-01 -2.15023140E+00
 -2.29600980E+00  2.42356590E+00  2.42356590E+00 -2.13200910E+00  2.44178820E+00
 -3.09779100E-01 -2.15023140E+00  2.44178820E+00  2.42356590E+00  2.42356590E+00
 -3.28001400E-01 -2.13200910E+00  2.44178820E+00 -3.46223700E-01 -2.11378680E+00
  2.42356590E+00 -6.56002800E-01 -2.15023140E+00  2.44178820E+00 -2.13200910E+00
 -2.31423210E+00  2.40534360E+00 -2.29600980E+00  2.42356590E+00  2.42356590E+00
  2.42356590E+00 -3.46223700E-01 -2.15023140E+00 -6.56002800E-01 -3.28001400E-01
 -2.31423210E+00  2.40534360E+00 -2.13200910E+00 -2.11378680E+00 -3.09779100E-01
 -2.15023140E+00 -2.29600980E+00  2.42356590E+00  2.42356590E+00 -2.13200910E+00
  2.44178820E+00 -3.09779100E-01 -2.15023140E+00  2.44178820E+00  2.42356590E+00
  2.42356590E+00 -3.28001400E-01 -2.13200910E+00  2.44178820E+00 -3.46223700E-01
 -2.11378680E+00  2.42356590E+00 -6.56002800E-01 -2.15023140E+00  2.44178820E+00
 -2.13200910E+00 -2.31423210E+00  2.40534360E+00 -2.29600980E+00  2.42356590E+00
  2.42356590E+00  2.42356590E+00 -3.46223700E-01 -2.15023140E+00 -6.56002800E-01
 -3.28001400E-01 -2.31423210E+00  2.40534360E+00 -2.13200910E+00 -2.11378680E+00
 -3.09779100E-01 -2.15023140E+00 -2.29600980E+00  2.42356590E+00  2.42356590E+00
 -2.13200910E+00  2.44178820E+00 -3.09779100E-01 -2.15023140E+00  2.44178820E+00
  2.42356590E+00  2.42356590E+00 -3.28001400E-01 -2.13200910E+00  2.44178820E+00
 -3.46223700E-01 -2.11378680E+00  2.42356590E+00 -6.56002800E-01 -2.15023140E+00
  2.44178820E+00 -2.13200910E+00 -2.31423210E+00  2.40534360E+00 -2.29600980E+00
  2.42356590E+00  2.42356590E+00  2.42356590E+00 -3.46223700E-01 -2.15023140E+00
 -6.56002800E-01 -3.28001400E-01 -2.31423210E+00  2.40534360E+00 -2.13200910E+00
 -2.11378680E+00 -3.09779100E-01 -2.15023140E+00 -2.29600980E+00  2.42356590E+00
  2.42356590E+00 -2.13200910E+00  2.44178820E+00 -3.09779100E-01 -2.15023140E+00
  2.44178820E+00  2.42356590E+00  2.42356590E+00 -3.28001400E-01 -2.13200910E+00
  2.44178820E+00 -3.46223700E-01 -2.11378680E+00  2.42356590E+00 -6.56002800E-01
 -2.15023140E+00  2.44178820E+00 -2.13200910E+00 -2.31423210E+00  2.40534360E+00
 -2.29600980E+00  2.42356590E+00  2.42356590E+00  2.42356590E+00 -3.46223700E-01
 -2.15023140E+00 -6.56002800E-01 -3.28001400E-01 -2.31423210E+00  2.40534360E+00
 -2.13200910E+00 -2.11378680E+00 -3.09779100E-01 -2.15023140E+00 -2.29600980E+00
  2.42356590E+00  2.42356590E+00 -2.13200910E+00  2.44178820E+00 -3.09779100E-01
 -2.15023140E+00  2.44178820E+00  2.42356590E+00  2.42356590E+00 -3.28001400E-01
 -2.13200910E+00  2.44178820E+00 -3.46223700E-01 -2.11378680E+00  2.42356590E+00
 -6.56002800E-01 -2.15023140E+00  2.44178820E+00 -2.13200910E+00 -2.31423210E+00
  2.40534360E+00 -2.29600980E+00  2.42356590E+00  2.42356590E+00  2.42356590E+00
 -3.46223700E-01 -2.15023140E+00 -6.56002800E-01 -3.28001400E-01 -2.31423210E+00
  2.40534360E+00 -2.13200910E+00 -2.11378680E+00 -3.09779100E-01 -2.15023140E+00
 -2.29600980E+00  2.42356590E+00  2.42356590E+00 -2.13200910E+00  2.44178820E+00
 -3.09779100E-01 -2.15023140E+00  2.44178820E+00  2.42356590E+00  2.42356590E+00
 -3.28001400E-01 -2.13200910E+00  2.44178820E+00 -3.46223700E-01 -2.11378680E+00
  2.42356590E+00 -6.56002800E-01 -2.15023140E+00  2.44178820E+00 -2.13200910E+00
 -2.31423210E+00  2.40534360E+00 -2.29600980E+00  2.42356590E+00  2.42356590E+00
  2.42356590E+00 -3.46223700E-01 -2.15023140E+00 -6.56002800E-01 -3.28001400E-01
 -2.31423210E+00  2.40534360E+00 -2.13200910E+00 -2.11378680E+00 -3.09779100E-01
 -2.15023140E+00 -2.29600980E+00  2.42356590E+00  2.42356590E+00 -2.13200910E+00
  2.44178820E+00 -3.09779100E-01 -2.15023140E+00  2.44178820E+00  2.42356590E+00
  2.42356590E+00 -3.28001400E-01 -2.13200910E+00  2.44178820E+00 -3.46223700E-01
 -2.11378680E+00  2.42356590E+00 -6.56002800E-01 -2.15023140E+00  2.44178820E+00
 -2.13200910E+00 -2.31423210E+00  2.40534360E+00 -2.29600980E+00  2.42356590E+00
  2.42356590E+00  2.42356590E+00 -3.46223700E-01 -2.15023140E+00 -6.56002800E-01
 -3.28001400E-01 -2.31423210E+00  2.40534360E+00 -2.13200910E+00 -2.11378680E+00
 -3.09779100E-01 -2.15023140E+00 -2.29600980E+00  2.42356590E+00  2.42356590E+00
 -2.13200910E+00  2.44178820E+00 -3.09779100E-01 -2.15023140E+00  2.44178820E+00
  2.42356590E+00  2.42356590E+00 -3.28001400E-01 -2.13200910E+00  2.44178820E+00
 -3.46223700E-01 -2.11378680E+00  2.42356590E+00 -6.56002800E-01 -2.15023140E+00
  2.44178820E+00 -2.13200910E+00 -2.31423210E+00  2.40534360E+00 -2.29600980E+00
  2.42356590E+00  2.42356590E+00  2.42356590E+00 -3.46223700E-01 -2.15023140E+00
 -6.56002800E-01 -3.28001400E-01 -2.31423210E+00  2.40534360E+00 -2.13200910E+00
 -2.11378680E+00 -3.09779100E-01 -2.15023140E+00 -2.29600980E+00  2.42356590E+00
  2.42356590E+00 -2.13200910E+00  2.44178820E+00 -3.09779100E-01 -2.15023140E+00
  2.44178820E+00  2.42356590E+00  2.42356590E+00 -3.28001400E-01 -2.13200910E+00
  2.44178820E+00 -3.46223700E-01 -2.11378680E+00  2.42356590E+00 -6.56002800E-01
 -2.15023140E+00  2.44178820E+00 -2.13200910E+00 -2.31423210E+00  2.40534360E+00
 -2.29600980E+00  2.42356590E+00  2.42356590E+00  2.42356590E+00 -3.46223700E-01
 -2.15023140E+00 -6.56002800E-01 -3.28001400E-01 -2.31423210E+00  2.40534360E+00
 -2.13200910E+00 -2.11378680E+00 -3.09779100E-01 -2.15023140E+00 -2.29600980E+00
  2.42356590E+00  2.42356590E+00 -2.13200910E+00  2.44178820E+00 -3.09779100E-01
 -2.15023140E+00  2.44178820E+00  2.42356590E+00  2.42356590E+00 -3.28001400E-01
 -2.13200910E+00  2.44178820E+00 -3.46223700E-01 -2.11378680E+00  2.42356590E+00
 -6.56002800E-01 -2.15023140E+00  2.44178820E+00 -2.13200910E+00 -2.31423210E+00
  2.40534360E+00 -2.29600980E+00  2.42356590E+00  2.42356590E+00  2.42356590E+00
 -3.46223700E-01 -2.15023140E+00 -6.56002800E-01 -3.28001400E-01 -2.31423210E+00
  2.40534360E+00 -2.13200910E+00 -2.11378680E+00 -3.09779100E-01 -2.15023140E+00
 -2.29600980E+00  2.42356590E+00  2.42356590E+00 -2.13200910E+00  2.44178820E+00
 -3.09779100E-01 -2.15023140E+00  2.44178820E+00  2.42356590E+00  2.42356590E+00
 -3.28001400E-01 -2.13200910E+00  2.44178820E+00 -3.46223700E-01 -2.11378680E+00
  2.42356590E+00 -6.56002800E-01 -2.15023140E+00  2.44178820E+00 -2.13200910E+00
 -2.31423210E+00  2.40534360E+00 -2.29600980E+00  2.42356590E+00  2.42356590E+00
  2.42356590E+00 -3.46223700E-01 -2.15023140E+00 -6.56002800E-01 -3.28001400E-01
 -2.31423210E+00  2.40534360E+00 -2.13200910E+00 -2.11378680E+00 -3.09779100E-01
 -2.15023140E+00 -2.29600980E+00  2.42356590E+00  2.42356590E+00 -2.13200910E+00
  2.44178820E+00 -3.09779100E-01 -2.15023140E+00  2.44178820E+00  2.42356590E+00
  2.42356590E+00 -3.28001400E-01 -2.13200910E+00  2.44178820E+00 -3.46223700E-01
 -2.11378680E+00  2.42356590E+00 -6.56002800E-01 -2.15023140E+00  2.44178820E+00
 -2.13200910E+00 -2.31423210E+00  2.40534360E+00 -2.29600980E+00  2.42356590E+00
  2.42356590E+00  2.42356590E+00 -3.46223700E-01 -2.15023140E+00 -6.56002800E-01
 -3.28001400E-01 -2.31423210E+00  2.40534360E+00 -2.13200910E+00 -2.11378680E+00
 -3.09779100E-01 -2.15023140E+00 -2.29600980E+00  2.42356590E+00  2.42356590E+00
 -2.13200910E+00  2.44178820E+00 -3.09779100E-01 -2.15023140E+00  2.44178820E+00
  2.42356590E+00  2.42356590E+00 -3.28001400E-01 -2.13200910E+00  2.44178820E+00
 -3.46223700E-01 -2.11378680E+00  2.42356590E+00 -6.56002800E-01 -2.15023140E+00
  2.44178820E+00 -2.13200910E+00 -2.31423210E+00  2.40534360E+00 -2.29600980E+00
  2.42356590E+00  2.42356590E+00  2.42356590E+00 -3.46223700E-01 -2.15023140E+00
 -6.56002800E-01 -3.28001400E-01 -2.31423210E+00  2.40534360E+00 -2.13200910E+00
 -2.11378680E+00 -3.09779100E-01 -2.15023140E+00 -2.29600980E+00  2.42356590E+00
  2.42356590E+00 -2.13200910E+00  2.44178820E+00 -3.09779100E-01 -2.15023140E+00
  2.44178820E+00  2.42356590E+00  2.42356590E+00 -3.28001400E-01 -2.13200910E+00
  2.44178820E+00 -3.46223700E-01 -2.11378680E+00  2.42356590E+00 -6.56002800E-01
 -2.15023140E+00  2.44178820E+00 -2.13200910E+00 -2.31423210E+00  2.40534360E+00
 -2.29600980E+00  2.42356590E+00  2.42356590E+00  2.42356590E+00 -3.46223700E-01
 -2.15023140E+00 -6.56002800E-01 -3.28001400E-01 -2.31423210E+00  2.40534360E+00
 -2.13200910E+00 -2.11378680E+00 -3.09779100E-01 -2.15023140E+00 -2.29600980E+00
  2.42356590E+00  2.42356590E+00 -2.13200910E+00  2.44178820E+00 -3.09779100E-01
 -2.15023140E+00  2.44178820E+00  2.42356590E+00  2.42356590E+00 -3.28001400E-01
 -2.13200910E+00  2.44178820E+00 -3.46223700E-01 -2.11378680E+00  2.42356590E+00
 -6.56002800E-01 -2.15023140E+00  2.44178820E+00 -2.13200910E+00 -2.31423210E+00
  2.40534360E+00 -2.29600980E+00  2.42356590E+00  2.42356590E+00  2.42356590E+00
 -3.46223700E-01 -2.15023140E+00 -6.56002800E-01 -3.28001400E-01 -2.31423210E+00
  2.40534360E+00 -2.13200910E+00 -2.11378680E+00 -3.09779100E-01 -2.15023140E+00
 -2.29600980E+00  2.42356590E+00  2.42356590E+00 -2.13200910E+00  2.44178820E+00
 -3.09779100E-01 -2.15023140E+00  2.44178820E+00  2.42356590E+00  2.42356590E+00
 -3.28001400E-01 -2.13200910E+00  2.44178820E+00 -3.46223700E-01 -2.11378680E+00
  2.42356590E+00 -6.56002800E-01 -2.15023140E+00  2.44178820E+00 -2.13200910E+00
 -2.31423210E+00  2.40534360E+00 -2.29600980E+00  2.42356590E+00  2.42356590E+00
  2.42356590E+00 -3.46223700E-01 -2.15023140E+00 -6.56002800E-01 -3.28001400E-01
 -2.31423210E+00  2.40534360E+00 -2.13200910E+00 -2.11378680E+00 -3.09779100E-01
 -2.15023140E+00 -2.29600980E+00  2.42356590E+00  2.42356590E+00 -2.13200910E+00
  2.44178820E+00 -3.09779100E-01 -2.15023140E+00  2.44178820E+00  2.42356590E+00
  2.42356590E+00 -3.28001400E-01 -2.13200910E+00  2.44178820E+00 -3.46223700E-01
 -2.11378680E+00  2.42356590E+00 -6.56002800E-01 -2.15023140E+00  2.44178820E+00
 -2.13200910E+00 -2.31423210E+00  2.40534360E+00 -2.29600980E+00  2.42356590E+00
  2.42356590E+00  2.42356590E+00 -3.46223700E-01 -2.15023140E+00 -6.56002800E-01
 -3.28001400E-01 -2.31423210E+00  2.40534360E+00 -2.13200910E+00 -2.11378680E+00
 -3.09779100E-01 -2.15023140E+00 -2.29600980E+00  2.42356590E+00  2.42356590E+00
 -2.13200910E+00  2.44178820E+00 -3.09779100E-01 -2.15023140E+00  2.44178820E+00
  2.42356590E+00  2.42356590E+00 -3.28001400E-01 -2.13200910E+00  2.44178820E+00
 -3.46223700E-01 -2.11378680E+00  2.42356590E+00 -6.56002800E-01 -2.15023140E+00
  2.44178820E+00 -2.13200910E+00 -2.31423210E+00  2.40534360E+00 -2.29600980E+00
  2.42356590E+00  2.42356590E+00  2.42356590E+00 -3.46223700E-01 -2.15023140E+00
 -6.56002800E-01 -3.28001400E-01 -2.31423210E+00  2.40534360E+00 -2.13200910E+00
 -2.11378680E+00 -3.09779100E-01 -2.15023140E+00 -2.29600980E+00  2.42356590E+00
  2.42356590E+00 -2.13200910E+00  2.44178820E+00 -3.09779100E-01 -2.15023140E+00
  2.44178820E+00  2.42356590E+00  2.42356590E+00 -3.28001400E-01 -2.13200910E+00
  2.44178820E+00 -3.46223700E-01 -2.11378680E+00  2.42356590E+00 -6.56002800E-01
 -2.15023140E+00  2.44178820E+00 -2.13200910E+00 -2.31423210E+00  2.40534360E+00
 -2.29600980E+00  2.42356590E+00  2.42356590E+00  2.42356590E+00 -3.46223700E-01
 -2.15023140E+00 -6.56002800E-01 -3.28001400E-01 -2.31423210E+00  2.40534360E+00
 -2.13200910E+00 -2.11378680E+00 -3.09779100E-01 -2.15023140E+00 -2.29600980E+00
  2.42356590E+00  2.42356590E+00 -2.13200910E+00  2.44178820E+00 -3.09779100E-01
 -2.15023140E+00  2.44178820E+00  2.42356590E+00  2.42356590E+00 -3.28001400E-01
 -2.13200910E+00  2.44178820E+00 -3.46223700E-01 -2.11378680E+00  2.42356590E+00
 -6.56002800E-01 -2.15023140E+00  2.44178820E+00 -2.13200910E+00 -2.31423210E+00
  2.40534360E+00 -2.29600980E+00  2.42356590E+00  2.42356590E+00  2.42356590E+00
 -3.46223700E-01 -2.15023140E+00 -6.56002800E-01 -3.28001400E-01 -2.31423210E+00
  2.40534360E+00 -2.13200910E+00 -2.11378680E+00 -3.09779100E-01 -2.15023140E+00
 -2.29600980E+00  2.42356590E+00  2.42356590E+00 -2.13200910E+00  2.44178820E+00
 -3.09779100E-01 -2.15023140E+00  2.44178820E+00  2.42356590E+00  2.42356590E+00
 -3.28001400E-01 -2.13200910E+00  2.44178820E+00 -3.46223700E-01 -2.11378680E+00
  2.42356590E+00 -6.56002800E-01 -2.15023140E+00  2.44178820E+00 -2.13200910E+00
 -2.31423210E+00  2.40534360E+00 -2.29600980E+00  2.42356590E+00  2.42356590E+00
  2.42356590E+00 -3.46223700E-01 -2.15023140E+00 -6.56002800E-01 -3.28001400E-01
 -2.31423210E+00  2.40534360E+00 -2.13200910E+00 -2.11378680E+00 -3.09779100E-01
 -2.15023140E+00 -2.29600980E+00  2.42356590E+00  2.42356590E+00 -2.13200910E+00
  2.44178820E+00 -3.09779100E-01 -2.15023140E+00  2.44178820E+00  2.42356590E+00
  2.42356590E+00 -3.28001400E-01 -2.13200910E+00  2.44178820E+00 -3.46223700E-01
 -2.11378680E+00  2.42356590E+00 -6.56002800E-01 -2.15023140E+00  2.44178820E+00
 -2.13200910E+00 -2.31423210E+00  2.40534360E+00 -2.29600980E+00  2.42356590E+00
  2.42356590E+00  2.42356590E+00 -3.46223700E-01 -2.15023140E+00 -6.56002800E-01
 -3.28001400E-01 -2.31423210E+00  2.40534360E+00 -2.13200910E+00 -2.11378680E+00
 -3.09779100E-01 -2.15023140E+00 -2.29600980E+00  2.42356590E+00  2.42356590E+00
 -2.13200910E+00  2.44178820E+00 -3.09779100E-01 -2.15023140E+00  2.44178820E+00
  2.42356590E+00  2.42356590E+00 -3.28001400E-01 -2.13200910E+00  2.44178820E+00
 -3.46223700E-01 -2.11378680E+00  2.42356590E+00 -6.56002800E-01 -2.15023140E+00
  2.44178820E+00 -2.13200910E+00 -2.31423210E+00  2.40534360E+00 -2.29600980E+00
  2.42356590E+00  2.42356590E+00  2.42356590E+00 -3.46223700E-01 -2.15023140E+00
 -6.56002800E-01 -3.28001400E-01 -2.31423210E+00  2.40534360E+00 -2.13200910E+00
 -2.11378680E+00 -3.09779100E-01 -2.15023140E+00 -2.29600980E+00  2.42356590E+00
  2.42356590E+00 -2.13200910E+00  2.44178820E+00 -3.09779100E-01 -2.15023140E+00
  2.44178820E+00  2.42356590E+00  2.42356590E+00 -3.28001400E-01 -2.13200910E+00
  2.44178820E+00 -3.46223700E-01 -2.11378680E+00  2.42356590E+00 -6.56002800E-01
 -2.15023140E+00  2.44178820E+00 -2.13200910E+00 -2.31423210E+00  2.40534360E+00
 -2.29600980E+00  2.42356590E+00  2.42356590E+00  2.42356590E+00 -3.46223700E-01
 -2.15023140E+00 -6.56002800E-01 -3.28001400E-01 -2.31423210E+00  2.40534360E+00
 -2.13200910E+00 -2.11378680E+00 -3.09779100E-01 -2.15023140E+00 -2.29600980E+00
  2.42356590E+00  2.42356590E+00 -2.13200910E+00  2.44178820E+00 -3.09779100E-01
 -2.15023140E+00  2.44178820E+00  2.42356590E+00  2.42356590E+00 -3.28001400E-01
 -2.13200910E+00  2.44178820E+00 -3.46223700E-01 -2.11378680E+00  2.42356590E+00
 -6.56002800E-01 -2.15023140E+00  2.44178820E+00 -2.13200910E+00 -2.31423210E+00
  2.40534360E+00 -2.29600980E+00  2.42356590E+00  2.42356590E+00  2.42356590E+00
 -3.46223700E-01 -2.15023140E+00 -6.56002800E-01 -3.28001400E-01 -2.31423210E+00
  2.40534360E+00 -2.13200910E+00 -2.11378680E+00 -3.09779100E-01 -2.15023140E+00
 -2.29600980E+00  2.42356590E+00  2.42356590E+00 -2.13200910E+00  2.44178820E+00
 -3.09779100E-01 -2.15023140E+00  2.44178820E+00  2.42356590E+00  2.42356590E+00
 -3.28001400E-01 -2.13200910E+00  2.44178820E+00 -3.46223700E-01 -2.11378680E+00
  2.42356590E+00 -6.56002800E-01 -2.15023140E+00  2.44178820E+00 -2.13200910E+00
 -2.31423210E+00  2.40534360E+00 -2.29600980E+00  2.42356590E+00  2.42356590E+00
  2.42356590E+00 -3.46223700E-01 -2.15023140E+00 -6.56002800E-01 -3.28001400E-01
 -2.31423210E+00  2.40534360E+00 -2.13200910E+00 -2.11378680E+00 -3.09779100E-01
 -2.15023140E+00 -2.29600980E+00  2.42356590E+00  2.42356590E+00 -2.13200910E+00
  2.44178820E+00 -3.09779100E-01 -2.15023140E+00  2.44178820E+00  2.42356590E+00
  2.42356590E+00 -3.28001400E-01 -2.13200910E+00  2.44178820E+00 -3.46223700E-01
 -2.11378680E+00  2.42356590E+00 -6.56002800E-01 -2.15023140E+00  2.44178820E+00
 -2.13200910E+00 -2.31423210E+00  2.40534360E+00 -2.29600980E+00  2.42356590E+00
  2.42356590E+00  2.42356590E+00 -3.46223700E-01 -2.15023140E+00 -6.56002800E-01
 -3.28001400E-01 -2.31423210E+00  2.40534360E+00 -2.13200910E+00 -2.11378680E+00
 -3.09779100E-01 -2.15023140E+00 -2.29600980E+00  2.42356590E+00  2.42356590E+00
 -2.13200910E+00  2.44178820E+00 -3.09779100E-01 -2.15023140E+00  2.44178820E+00
  2.42356590E+00  2.42356590E+00 -3.28001400E-01 -2.13200910E+00  2.44178820E+00
 -3.46223700E-01 -2.11378680E+00  2.42356590E+00 -6.56002800E-01 -2.15023140E+00
  2.44178820E+00 -2.13200910E+00 -2.31423210E+00  2.40534360E+00 -2.29600980E+00
  2.42356590E+00  2.42356590E+00  2.42356590E+00 -3.46223700E-01 -2.15023140E+00
 -6.56002800E-01 -3.28001400E-01 -2.31423210E+00  2.40534360E+00 -2.13200910E+00
 -2.11378680E+00 -3.09779100E-01 -2.15023140E+00 -2.29600980E+00  2.42356590E+00
  2.42356590E+00 -2.13200910E+00  2.44178820E+00 -3.09779100E-01 -2.15023140E+00
  2.44178820E+00  2.42356590E+00  2.42356590E+00 -3.28001400E-01 -2.13200910E+00
  2.44178820E+00 -3.46223700E-01 -2.11378680E+00  2.42356590E+00 -6.56002800E-01
 -2.15023140E+00  2.44178820E+00 -2.13200910E+00 -2.31423210E+00  2.40534360E+00
 -2.29600980E+00  2.42356590E+00  2.42356590E+00  2.42356590E+00 -3.46223700E-01
 -2.15023140E+00 -6.56002800E-01 -3.28001400E-01 -2.31423210E+00  2.40534360E+00
 -2.13200910E+00 -2.11378680E+00 -3.09779100E-01 -2.15023140E+00 -2.29600980E+00
  2.42356590E+00  2.42356590E+00 -2.13200910E+00  2.44178820E+00 -3.09779100E-01
 -2.15023140E+00  2.44178820E+00  2.42356590E+00  2.42356590E+00 -3.28001400E-01
 -2.13200910E+00  2.44178820E+00 -3.46223700E-01 -2.11378680E+00  2.42356590E+00
 -6.56002800E-01 -2.15023140E+00  2.44178820E+00 -2.13200910E+00 -2.31423210E+00
  2.40534360E+00 -2.29600980E+00  2.42356590E+00  2.42356590E+00  2.42356590E+00
 -3.46223700E-01 -2.15023140E+00 -6.56002800E-01 -3.28001400E-01 -2.31423210E+00
  2.40534360E+00 -2.13200910E+00 -2.11378680E+00 -3.09779100E-01 -2.15023140E+00
 -2.29600980E+00  2.42356590E+00  2.42356590E+00 -2.13200910E+00  2.44178820E+00
 -3.09779100E-01 -2.15023140E+00  2.44178820E+00  2.42356590E+00  2.42356590E+00
 -3.28001400E-01 -2.13200910E+00  2.44178820E+00 -3.46223700E-01 -2.11378680E+00
  2.42356590E+00 -6.56002800E-01 -2.15023140E+00  2.44178820E+00 -2.13200910E+00
 -2.31423210E+00  2.40534360E+00 -2.29600980E+00  2.42356590E+00  2.42356590E+00
  2.42356590E+00 -3.46223700E-01 -2.15023140E+00 -6.56002800E-01 -3.28001400E-01
 -2.31423210E+00  2.40534360E+00 -2.13200910E+00 -2.11378680E+00 -3.09779100E-01
 -2.15023140E+00 -2.29600980E+00  2.42356590E+00  2.42356590E+00 -2.13200910E+00
  2.44178820E+00 -3.09779100E-01 -2.15023140E+00  2.44178820E+00  2.42356590E+00
  2.42356590E+00 -3.28001400E-01 -2.13200910E+00  2.44178820E+00 -3.46223700E-01
 -2.11378680E+00  2.42356590E+00 -6.56002800E-01 -2.15023140E+00  2.44178820E+00
 -2.13200910E+00 -2.31423210E+00  2.40534360E+00 -2.29600980E+00  2.42356590E+00
  2.42356590E+00  2.42356590E+00 -3.46223700E-01 -2.15023140E+00 -6.56002800E-01
 -3.28001400E-01 -2.31423210E+00  2.40534360E+00 -2.13200910E+00 -2.11378680E+00
 -3.09779100E-01 -2.15023140E+00 -2.29600980E+00  2.42356590E+00  2.42356590E+00
 -2.13200910E+00  2.44178820E+00 -3.09779100E-01 -2.15023140E+00  2.44178820E+00
  2.42356590E+00  2.42356590E+00 -3.28001400E-01 -2.13200910E+00  2.44178820E+00
 -3.46223700E-01 -2.11378680E+00  2.42356590E+00 -6.56002800E-01 -2.15023140E+00
  2.44178820E+00 -2.13200910E+00 -2.31423210E+00  2.40534360E+00 -2.29600980E+00
  2.42356590E+00  2.42356590E+00  2.42356590E+00 -3.46223700E-01 -2.15023140E+00
 -6.56002800E-01 -3.28001400E-01 -2.31423210E+00  2.40534360E+00 -2.13200910E+00
 -2.11378680E+00 -3.09779100E-01 -2.15023140E+00 -2.29600980E+00  2.42356590E+00
  2.42356590E+00 -2.13200910E+00  2.44178820E+00 -3.09779100E-01 -2.15023140E+00
  2.44178820E+00  2.42356590E+00  2.42356590E+00 -3.28001400E-01 -2.13200910E+00
  2.44178820E+00 -3.46223700E-01 -2.11378680E+00  2.42356590E+00 -6.56002800E-01
 -2.15023140E+00  2.44178820E+00 -2.13200910E+00 -2.31423210E+00  2.40534360E+00
 -2.29600980E+00  2.42356590E+00  2.42356590E+00  2.42356590E+00 -3.46223700E-01
 -2.15023140E+00 -6.56002800E-01 -3.28001400E-01 -2.31423210E+00  2.40534360E+00
 -2.13200910E+00 -2.11378680E+00 -3.09779100E-01 -2.15023140E+00 -2.29600980E+00
  2.42356590E+00  2.42356590E+00 -2.13200910E+00  2.44178820E+00 -3.09779100E-01
 -2.15023140E+00  2.44178820E+00  2.42356590E+00  2.42356590E+00 -3.28001400E-01
 -2.13200910E+00  2.44178820E+00 -3.46223700E-01 -2.11378680E+00  2.42356590E+00
 -6.56002800E-01 -2.15023140E+00  2.44178820E+00 -2.13200910E+00 -2.31423210E+00
  2.40534360E+00 -2.29600980E+00  2.42356590E+00  2.42356590E+00  2.42356590E+00
 -3.46223700E-01 -2.15023140E+00 -6.56002800E-01 -3.28001400E-01 -2.31423210E+00
  2.40534360E+00 -2.13200910E+00 -2.11378680E+00 -3.09779100E-01 -2.15023140E+00
 -2.29600980E+00  2.42356590E+00  2.42356590E+00 -2.13200910E+00  2.44178820E+00
 -3.09779100E-01 -2.15023140E+00  2.44178820E+00  2.42356590E+00  2.42356590E+00
 -3.28001400E-01 -2.13200910E+00  2.44178820E+00 -3.46223700E-01 -2.11378680E+00
  2.42356590E+00 -6.56002800E-01 -2.15023140E+00  2.44178820E+00 -2.13200910E+00
 -2.31423210E+00  2.40534360E+00 -2.29600980E+00  2.42356590E+00  2.42356590E+00
  2.42356590E+00 -3.46223700E-01 -2.15023140E+00 -6.56002800E-01 -3.28001400E-01
 -2.31423210E+00  2.40534360E+00 -2.13200910E+00 -2.11378680E+00 -3.09779100E-01
 -2.15023140E+00 -2.29600980E+00  2.42356590E+00  2.42356590E+00 -2.13200910E+00
  2.44178820E+00 -3.09779100E-01 -2.15023140E+00  2.44178820E+00  2.42356590E+00
  2.42356590E+00 -3.28001400E-01 -2.13200910E+00  2.44178820E+00 -3.46223700E-01
 -2.11378680E+00  2.42356590E+00 -6.56002800E-01 -2.15023140E+00  2.44178820E+00
 -2.13200910E+00 -2.31423210E+00  2.40534360E+00 -2.29600980E+00  2.42356590E+00
  2.42356590E+00  2.42356590E+00 -3.46223700E-01 -2.15023140E+00 -6.56002800E-01
 -3.28001400E-01 -2.31423210E+00  2.40534360E+00 -2.13200910E+00 -2.11378680E+00
 -3.09779100E-01 -2.15023140E+00 -2.29600980E+00  2.42356590E+00  2.42356590E+00
 -2.13200910E+00  2.44178820E+00 -3.09779100E-01 -2.15023140E+00  2.44178820E+00
  2.42356590E+00  2.42356590E+00 -3.28001400E-01 -2.13200910E+00  2.44178820E+00
 -3.46223700E-01 -2.11378680E+00  2.42356590E+00 -6.56002800E-01 -2.15023140E+00
  2.44178820E+00 -2.13200910E+00 -2.31423210E+00  2.40534360E+00 -2.29600980E+00
  2.42356590E+00  2.42356590E+00  2.42356590E+00 -3.46223700E-01 -2.15023140E+00
 -6.56002800E-01 -3.28001400E-01 -2.31423210E+00  2.40534360E+00 -2.13200910E+00
 -2.11378680E+00 -3.09779100E-01 -2.15023140E+00 -2.29600980E+00  2.42356590E+00
  2.42356590E+00 -2.13200910E+00  2.44178820E+00 -3.09779100E-01 -2.15023140E+00
  2.44178820E+00  2.42356590E+00  2.42356590E+00 -3.28001400E-01 -2.13200910E+00
  2.44178820E+00 -3.46223700E-01 -2.11378680E+00  2.42356590E+00 -6.56002800E-01
 -2.15023140E+00  2.44178820E+00 -2.13200910E+00 -2.31423210E+00  2.40534360E+00
 -2.29600980E+00  2.42356590E+00  2.42356590E+00  2.42356590E+00 -3.46223700E-01
 -2.15023140E+00 -6.56002800E-01 -3.28001400E-01 -2.31423210E+00  2.40534360E+00
 -2.13200910E+00 -2.11378680E+00 -3.09779100E-01 -2.15023140E+00 -2.29600980E+00
  2.42356590E+00  2.42356590E+00 -2.13200910E+00  2.44178820E+00 -3.09779100E-01
 -2.15023140E+00  2.44178820E+00  2.42356590E+00  2.42356590E+00 -3.28001400E-01
 -2.13200910E+00  2.44178820E+00 -3.46223700E-01 -2.11378680E+00  2.42356590E+00
 -6.56002800E-01 -2.15023140E+00  2.44178820E+00 -2.13200910E+00 -2.31423210E+00
  2.40534360E+00 -2.29600980E+00  2.42356590E+00  2.42356590E+00  2.42356590E+00
 -3.46223700E-01 -2.15023140E+00 -6.56002800E-01 -3.28001400E-01 -2.31423210E+00
  2.40534360E+00 -2.13200910E+00 -2.11378680E+00 -3.09779100E-01 -2.15023140E+00
 -2.29600980E+00  2.42356590E+00  2.42356590E+00 -2.13200910E+00  2.44178820E+00
 -3.09779100E-01 -2.15023140E+00  2.44178820E+00  2.42356590E+00  2.42356590E+00
 -3.28001400E-01 -2.13200910E+00  2.44178820E+00 -3.46223700E-01 -2.11378680E+00
  2.42356590E+00 -6.56002800E-01 -2.15023140E+00  2.44178820E+00 -2.13200910E+00
 -2.31423210E+00  2.40534360E+00 -2.29600980E+00  2.42356590E+00  2.42356590E+00
  2.42356590E+00 -3.46223700E-01 -2.15023140E+00 -6.56002800E-01 -3.28001400E-01
 -2.31423210E+00  2.40534360E+00 -2.13200910E+00 -2.11378680E+00 -3.09779100E-01
 -2.15023140E+00 -2.29600980E+00  2.42356590E+00  2.42356590E+00 -2.13200910E+00
  2.44178820E+00 -3.09779100E-01 -2.15023140E+00  2.44178820E+00  2.42356590E+00
  2.42356590E+00 -3.28001400E-01 -2.13200910E+00  2.44178820E+00 -3.46223700E-01
 -2.11378680E+00  2.42356590E+00 -6.56002800E-01 -2.15023140E+00  2.44178820E+00
 -2.13200910E+00 -2.31423210E+00  2.40534360E+00 -2.29600980E+00  2.42356590E+00
  2.42356590E+00  2.42356590E+00 -3.46223700E-01 -2.15023140E+00 -6.56002800E-01
 -3.28001400E-01 -2.31423210E+00  2.40534360E+00 -2.13200910E+00 -2.11378680E+00
 -3.09779100E-01 -2.15023140E+00 -2.29600980E+00  2.42356590E+00  2.42356590E+00
 -2.13200910E+00  2.44178820E+00 -3.09779100E-01 -2.15023140E+00  2.44178820E+00
  2.42356590E+00  2.42356590E+00 -3.28001400E-01 -2.13200910E+00  2.44178820E+00
 -3.46223700E-01 -2.11378680E+00  2.42356590E+00 -6.56002800E-01 -2.15023140E+00
  2.44178820E+00 -2.13200910E+00 -2.31423210E+00  2.40534360E+00 -2.29600980E+00
  2.42356590E+00  2.42356590E+00  2.42356590E+00 -3.46223700E-01 -2.15023140E+00
 -6.56002800E-01 -3.28001400E-01 -2.31423210E+00  2.40534360E+00 -2.13200910E+00
 -2.11378680E+00 -3.09779100E-01 -2.15023140E+00 -2.29600980E+00  2.42356590E+00
  2.42356590E+00 -2.13200910E+00  2.44178820E+00 -3.09779100E-01 -2.15023140E+00
  2.44178820E+00  2.42356590E+00  2.42356590E+00 -3.28001400E-01 -2.13200910E+00
  2.44178820E+00 -3.46223700E-01 -2.11378680E+00  2.42356590E+00 -6.56002800E-01
 -2.15023140E+00  2.44178820E+00 -2.13200910E+00 -2.31423210E+00  2.40534360E+00
 -2.29600980E+00  2.42356590E+00  2.42356590E+00  2.42356590E+00 -3.46223700E-01
 -2.15023140E+00 -6.56002800E-01 -3.28001400E-01 -2.31423210E+00  2.40534360E+00
 -2.13200910E+00 -2.11378680E+00 -3.09779100E-01 -2.15023140E+00 -2.29600980E+00
  2.42356590E+00  2.42356590E+00 -2.13200910E+00  2.44178820E+00 -3.09779100E-01
 -2.15023140E+00  2.44178820E+00  2.42356590E+00  2.42356590E+00 -3.28001400E-01
 -2.13200910E+00  2.44178820E+00 -3.46223700E-01 -2.11378680E+00  2.42356590E+00
 -6.56002800E-01 -2.15023140E+00  2.44178820E+00 -2.13200910E+00 -2.31423210E+00
  2.40534360E+00 -2.29600980E+00  2.42356590E+00  2.42356590E+00  2.42356590E+00
 -3.46223700E-01 -2.15023140E+00 -6.56002800E-01 -3.28001400E-01 -2.31423210E+00
  2.40534360E+00 -2.13200910E+00 -2.11378680E+00 -3.09779100E-01 -2.15023140E+00
 -2.29600980E+00  2.42356590E+00  2.42356590E+00 -2.13200910E+00  2.44178820E+00
 -3.09779100E-01 -2.15023140E+00  2.44178820E+00  2.42356590E+00  2.42356590E+00
 -3.28001400E-01 -2.13200910E+00  2.44178820E+00 -3.46223700E-01 -2.11378680E+00
  2.42356590E+00 -6.56002800E-01 -2.15023140E+00  2.44178820E+00 -2.13200910E+00
 -2.31423210E+00  2.40534360E+00 -2.29600980E+00  2.42356590E+00  2.42356590E+00
  2.42356590E+00 -3.46223700E-01 -2.15023140E+00 -6.56002800E-01 -3.28001400E-01
 -2.31423210E+00  2.40534360E+00 -2.13200910E+00 -2.11378680E+00 -3.09779100E-01
 -2.15023140E+00 -2.29600980E+00  2.42356590E+00  2.42356590E+00 -2.13200910E+00
  2.44178820E+00 -3.09779100E-01 -2.15023140E+00  2.44178820E+00  2.42356590E+00
  2.42356590E+00 -3.28001400E-01 -2.13200910E+00  2.44178820E+00 -3.46223700E-01
 -2.11378680E+00  2.42356590E+00 -6.56002800E-01 -2.15023140E+00  2.44178820E+00
 -2.13200910E+00 -2.31423210E+00  2.40534360E+00 -2.29600980E+00  2.42356590E+00
  2.42356590E+00  2.42356590E+00 -3.46223700E-01 -2.15023140E+00 -6.56002800E-01
 -3.28001400E-01 -2.31423210E+00  2.40534360E+00 -2.13200910E+00 -2.11378680E+00
 -3.09779100E-01 -2.15023140E+00 -2.29600980E+00  2.42356590E+00  2.42356590E+00
 -2.13200910E+00  2.44178820E+00 -3.09779100E-01 -2.15023140E+00  2.44178820E+00
  2.42356590E+00  2.42356590E+00 -3.28001400E-01 -2.13200910E+00  2.44178820E+00
 -3.46223700E-01 -2.11378680E+00  2.42356590E+00 -6.56002800E-01 -2.15023140E+00
  2.44178820E+00 -2.13200910E+00 -2.31423210E+00  2.40534360E+00 -2.29600980E+00
  2.42356590E+00  2.42356590E+00  2.42356590E+00 -3.46223700E-01 -2.15023140E+00
 -6.56002800E-01 -3.28001400E-01 -2.31423210E+00  2.40534360E+00 -2.13200910E+00
 -2.11378680E+00 -3.09779100E-01 -2.15023140E+00 -2.29600980E+00  2.42356590E+00
  2.42356590E+00 -2.13200910E+00  2.44178820E+00 -3.09779100E-01 -2.15023140E+00
  2.44178820E+00  2.42356590E+00  2.42356590E+00 -3.28001400E-01 -2.13200910E+00
  2.44178820E+00 -3.46223700E-01 -2.11378680E+00  2.42356590E+00 -6.56002800E-01
 -2.15023140E+00  2.44178820E+00 -2.13200910E+00 -2.31423210E+00  2.40534360E+00
 -2.29600980E+00  2.42356590E+00  2.42356590E+00  2.42356590E+00 -3.46223700E-01
 -2.15023140E+00 -6.56002800E-01 -3.28001400E-01 -2.31423210E+00  2.40534360E+00
 -2.13200910E+00 -2.11378680E+00 -3.09779100E-01 -2.15023140E+00 -2.29600980E+00
  2.42356590E+00  2.42356590E+00 -2.13200910E+00  2.44178820E+00 -3.09779100E-01
 -2.15023140E+00  2.44178820E+00  2.42356590E+00  2.42356590E+00 -3.28001400E-01
 -2.13200910E+00  2.44178820E+00 -3.46223700E-01 -2.11378680E+00  2.42356590E+00
 -6.56002800E-01 -2.15023140E+00  2.44178820E+00 -2.13200910E+00 -2.31423210E+00
  2.40534360E+00 -2.29600980E+00  2.42356590E+00  2.42356590E+00  2.42356590E+00
 -3.46223700E-01 -2.15023140E+00 -6.56002800E-01 -3.28001400E-01 -2.31423210E+00
  2.40534360E+00 -2.13200910E+00 -2.11378680E+00 -3.09779100E-01 -2.15023140E+00
 -2.29600980E+00  2.42356590E+00  2.42356590E+00 -2.13200910E+00  2.44178820E+00
 -3.09779100E-01 -2.15023140E+00  2.44178820E+00  2.42356590E+00  2.42356590E+00
 -3.28001400E-01 -2.13200910E+00  2.44178820E+00 -3.46223700E-01 -2.11378680E+00
  2.42356590E+00 -6.56002800E-01 -2.15023140E+00  2.44178820E+00 -2.13200910E+00
 -2.31423210E+00  2.40534360E+00 -2.29600980E+00  2.42356590E+00  2.42356590E+00
  2.42356590E+00 -3.46223700E-01 -2.15023140E+00 -6.56002800E-01 -3.28001400E-01
 -2.31423210E+00  2.40534360E+00 -2.13200910E+00 -2.11378680E+00 -3.09779100E-01
 -2.15023140E+00 -2.29600980E+00  2.42356590E+00  2.42356590E+00 -2.13200910E+00
  2.44178820E+00 -3.09779100E-01 -2.15023140E+00  2.44178820E+00  2.42356590E+00
  2.42356590E+00 -3.28001400E-01 -2.13200910E+00  2.44178820E+00 -3.46223700E-01
 -2.11378680E+00  2.42356590E+00 -6.56002800E-01 -2.15023140E+00  2.44178820E+00
 -2.13200910E+00 -2.31423210E+00  2.40534360E+00 -2.29600980E+00  2.42356590E+00
  2.42356590E+00  2.42356590E+00 -3.46223700E-01 -2.15023140E+00 -6.56002800E-01
 -3.28001400E-01 -2.31423210E+00  2.40534360E+00 -2.13200910E+00 -2.11378680E+00
 -3.09779100E-01 -2.15023140E+00 -2.29600980E+00  2.42356590E+00  2.42356590E+00
 -2.13200910E+00  2.44178820E+00 -3.09779100E-01 -2.15023140E+00  2.44178820E+00
  2.42356590E+00  2.42356590E+00 -3.28001400E-01 -2.13200910E+00  2.44178820E+00
 -3.46223700E-01 -2.11378680E+00  2.42356590E+00 -6.56002800E-01 -2.15023140E+00
  2.44178820E+00 -2.13200910E+00 -2.31423210E+00  2.40534360E+00 -2.29600980E+00
  2.42356590E+00  2.42356590E+00  2.42356590E+00 -3.46223700E-01 -2.15023140E+00
 -6.56002800E-01 -3.28001400E-01 -2.31423210E+00  2.40534360E+00 -2.13200910E+00
 -2.11378680E+00 -3.09779100E-01 -2.15023140E+00 -2.29600980E+00  2.42356590E+00
  2.42356590E+00 -2.13200910E+00  2.44178820E+00 -3.09779100E-01 -2.15023140E+00
  2.44178820E+00  2.42356590E+00  2.42356590E+00 -3.28001400E-01 -2.13200910E+00
  2.44178820E+00 -3.46223700E-01 -2.11378680E+00  2.42356590E+00 -6.56002800E-01
 -2.15023140E+00  2.44178820E+00 -2.13200910E+00 -2.31423210E+00  2.40534360E+00
 -2.29600980E+00  2.42356590E+00  2.42356590E+00  2.42356590E+00 -3.46223700E-01
 -2.15023140E+00 -6.56002800E-01 -3.28001400E-01 -2.31423210E+00  2.40534360E+00
 -2.13200910E+00 -2.11378680E+00 -3.09779100E-01 -2.15023140E+00 -2.29600980E+00
  2.42356590E+00  2.42356590E+00 -2.13200910E+00  2.44178820E+00 -3.09779100E-01
 -2.15023140E+00  2.44178820E+00  2.42356590E+00  2.42356590E+00 -3.28001400E-01
 -2.13200910E+00  2.44178820E+00 -3.46223700E-01 -2.11378680E+00  2.42356590E+00
 -6.56002800E-01 -2.15023140E+00  2.44178820E+00 -2.13200910E+00 -2.31423210E+00
  2.40534360E+00 -2.29600980E+00  2.42356590E+00  2.42356590E+00  2.42356590E+00
 -3.46223700E-01 -2.15023140E+00 -6.56002800E-01 -3.28001400E-01 -2.31423210E+00
  2.40534360E+00 -2.13200910E+00 -2.11378680E+00 -3.09779100E-01 -2.15023140E+00
 -2.29600980E+00  2.42356590E+00  2.42356590E+00 -2.13200910E+00  2.44178820E+00
 -3.09779100E-01 -2.15023140E+00  2.44178820E+00  2.42356590E+00  2.42356590E+00
 -3.28001400E-01 -2.13200910E+00  2.44178820E+00 -3.46223700E-01 -2.11378680E+00
  2.42356590E+00 -6.56002800E-01 -2.15023140E+00  2.44178820E+00 -2.13200910E+00
 -2.31423210E+00  2.40534360E+00 -2.29600980E+00  2.42356590E+00  2.42356590E+00
  2.42356590E+00 -3.46223700E-01 -2.15023140E+00 -6.56002800E-01 -3.28001400E-01
 -2.31423210E+00  2.40534360E+00 -2.13200910E+00 -2.11378680E+00 -3.09779100E-01
 -2.15023140E+00 -2.29600980E+00  2.42356590E+00  2.42356590E+00 -2.13200910E+00
  2.44178820E+00 -3.09779100E-01 -2.15023140E+00  2.44178820E+00  2.42356590E+00
  2.42356590E+00 -3.28001400E-01 -2.13200910E+00  2.44178820E+00 -3.46223700E-01
 -2.11378680E+00  2.42356590E+00 -6.56002800E-01 -2.15023140E+00  2.44178820E+00
 -2.13200910E+00 -2.31423210E+00  2.40534360E+00 -2.29600980E+00  2.42356590E+00
  2.42356590E+00  2.42356590E+00 -3.46223700E-01 -2.15023140E+00 -6.56002800E-01
 -3.28001400E-01 -2.31423210E+00  2.40534360E+00 -2.13200910E+00 -2.11378680E+00
 -3.09779100E-01 -2.15023140E+00 -2.29600980E+00  2.42356590E+00  2.42356590E+00
 -2.13200910E+00  2.44178820E+00 -3.09779100E-01 -2.15023140E+00  2.44178820E+00
  2.42356590E+00  2.42356590E+00 -3.28001400E-01 -2.13200910E+00  2.44178820E+00
 -3.46223700E-01 -2.11378680E+00  2.42356590E+00 -6.56002800E-01 -2.15023140E+00
  2.44178820E+00 -2.13200910E+00 -2.31423210E+00  2.40534360E+00 -2.29600980E+00
  2.42356590E+00  2.42356590E+00  2.42356590E+00 -3.46223700E-01 -2.15023140E+00
 -6.56002800E-01 -3.28001400E-01 -2.31423210E+00  2.40534360E+00 -2.13200910E+00
 -2.11378680E+00 -3.09779100E-01 -2.15023140E+00 -2.29600980E+00  2.42356590E+00
  2.42356590E+00 -2.13200910E+00  2.44178820E+00 -3.09779100E-01 -2.15023140E+00
  2.44178820E+00  2.42356590E+00  2.42356590E+00 -3.28001400E-01 -2.13200910E+00
  2.44178820E+00 -3.46223700E-01 -2.11378680E+00  2.42356590E+00 -6.56002800E-01
 -2.15023140E+00  2.44178820E+00 -2.13200910E+00 -2.31423210E+00  2.40534360E+00
 -2.29600980E+00  2.42356590E+00  2.42356590E+00  2.42356590E+00 -3.46223700E-01
 -2.15023140E+00 -6.56002800E-01 -3.28001400E-01 -2.31423210E+00  2.40534360E+00
 -2.13200910E+00 -2.11378680E+00 -3.09779100E-01 -2.15023140E+00 -2.29600980E+00
  2.42356590E+00  2.42356590E+00 -2.13200910E+00  2.44178820E+00 -3.09779100E-01
 -2.15023140E+00  2.44178820E+00  2.42356590E+00  2.42356590E+00 -3.28001400E-01
 -2.13200910E+00  2.44178820E+00 -3.46223700E-01 -2.11378680E+00  2.42356590E+00
 -6.56002800E-01 -2.15023140E+00  2.44178820E+00 -2.13200910E+00 -2.31423210E+00
  2.40534360E+00 -2.29600980E+00  2.42356590E+00  2.42356590E+00  2.42356590E+00
 -3.46223700E-01 -2.15023140E+00 -6.56002800E-01 -3.28001400E-01 -2.31423210E+00
  2.40534360E+00 -2.13200910E+00 -2.11378680E+00 -3.09779100E-01 -2.15023140E+00
 -2.29600980E+00  2.42356590E+00  2.42356590E+00 -2.13200910E+00  2.44178820E+00
 -3.09779100E-01 -2.15023140E+00  2.44178820E+00  2.42356590E+00  2.42356590E+00
 -3.28001400E-01 -2.13200910E+00  2.44178820E+00 -3.46223700E-01 -2.11378680E+00
  2.42356590E+00 -6.56002800E-01 -2.15023140E+00  2.44178820E+00 -2.13200910E+00
 -2.31423210E+00  2.40534360E+00 -2.29600980E+00  2.42356590E+00  2.42356590E+00
  2.42356590E+00 -3.46223700E-01 -2.15023140E+00 -6.56002800E-01 -3.28001400E-01
 -2.31423210E+00  2.40534360E+00 -2.13200910E+00 -2.11378680E+00 -3.09779100E-01
 -2.15023140E+00 -2.29600980E+00  2.42356590E+00  2.42356590E+00 -2.13200910E+00
  2.44178820E+00 -3.09779100E-01 -2.15023140E+00  2.44178820E+00  2.42356590E+00
  2.42356590E+00 -3.28001400E-01 -2.13200910E+00  2.44178820E+00 -3.46223700E-01
 -2.11378680E+00  2.42356590E+00 -6.56002800E-01 -2.15023140E+00  2.44178820E+00
 -2.13200910E+00 -2.31423210E+00  2.40534360E+00 -2.29600980E+00  2.42356590E+00
  2.42356590E+00  2.42356590E+00 -3.46223700E-01 -2.15023140E+00 -6.56002800E-01
 -3.28001400E-01 -2.31423210E+00  2.40534360E+00 -2.13200910E+00 -2.11378680E+00
 -3.09779100E-01 -2.15023140E+00 -2.29600980E+00  2.42356590E+00  2.42356590E+00
 -2.13200910E+00  2.44178820E+00 -3.09779100E-01 -2.15023140E+00  2.44178820E+00
  2.42356590E+00  2.42356590E+00 -3.28001400E-01 -2.13200910E+00  2.44178820E+00
 -3.46223700E-01 -2.11378680E+00  2.42356590E+00 -6.56002800E-01 -2.15023140E+00
  2.44178820E+00 -2.13200910E+00 -2.31423210E+00  2.40534360E+00 -2.29600980E+00
  2.42356590E+00  2.42356590E+00  2.42356590E+00 -3.46223700E-01 -2.15023140E+00
 -6.56002800E-01 -3.28001400E-01 -2.31423210E+00  2.40534360E+00 -2.13200910E+00
 -2.11378680E+00 -3.09779100E-01 -2.15023140E+00 -2.29600980E+00  2.42356590E+00
  2.42356590E+00 -2.13200910E+00  2.44178820E+00 -3.09779100E-01 -2.15023140E+00
  2.44178820E+00  2.42356590E+00  2.42356590E+00 -3.28001400E-01 -2.13200910E+00
  2.44178820E+00 -3.46223700E-01 -2.11378680E+00  2.42356590E+00 -6.56002800E-01
 -2.15023140E+00  2.44178820E+00 -2.13200910E+00 -2.31423210E+00  2.40534360E+00
 -2.29600980E+00  2.42356590E+00  2.42356590E+00  2.42356590E+00 -3.46223700E-01
 -2.15023140E+00 -6.56002800E-01 -3.28001400E-01 -2.31423210E+00  2.40534360E+00
 -2.13200910E+00 -2.11378680E+00 -3.09779100E-01 -2.15023140E+00 -2.29600980E+00
  2.42356590E+00  2.42356590E+00 -2.13200910E+00  2.44178820E+00 -3.09779100E-01
 -2.15023140E+00  2.44178820E+00  2.42356590E+00  2.42356590E+00 -3.28001400E-01
 -2.13200910E+00  2.44178820E+00 -3.46223700E-01 -2.11378680E+00  2.42356590E+00
 -6.56002800E-01 -2.15023140E+00  2.44178820E+00 -2.13200910E+00 -2.31423210E+00
  2.40534360E+00 -2.29600980E+00  2.42356590E+00  2.42356590E+00  2.42356590E+00
 -3.46223700E-01 -2.15023140E+00 -6.56002800E-01 -3.28001400E-01 -2.31423210E+00
  2.40534360E+00 -2.13200910E+00 -2.11378680E+00 -3.09779100E-01 -2.15023140E+00
 -2.29600980E+00  2.42356590E+00  2.42356590E+00 -2.13200910E+00  2.44178820E+00
 -3.09779100E-01 -2.15023140E+00  2.44178820E+00  2.42356590E+00  2.42356590E+00
 -3.28001400E-01 -2.13200910E+00  2.44178820E+00 -3.46223700E-01 -2.11378680E+00
  2.42356590E+00 -6.56002800E-01 -2.15023140E+00  2.44178820E+00 -2.13200910E+00
 -2.31423210E+00  2.40534360E+00 -2.29600980E+00  2.42356590E+00  2.42356590E+00
  2.42356590E+00 -3.46223700E-01 -2.15023140E+00 -6.56002800E-01 -3.28001400E-01
 -2.31423210E+00  2.40534360E+00 -2.13200910E+00 -2.11378680E+00 -3.09779100E-01
 -2.15023140E+00 -2.29600980E+00  2.42356590E+00  2.42356590E+00 -2.13200910E+00
  2.44178820E+00 -3.09779100E-01 -2.15023140E+00  2.44178820E+00  2.42356590E+00
  2.42356590E+00 -3.28001400E-01 -2.13200910E+00  2.44178820E+00 -3.46223700E-01
 -2.11378680E+00  2.42356590E+00 -6.56002800E-01 -2.15023140E+00  2.44178820E+00
 -2.13200910E+00 -2.31423210E+00  2.40534360E+00 -2.29600980E+00  2.42356590E+00
  2.42356590E+00  2.42356590E+00 -3.46223700E-01 -2.15023140E+00 -6.56002800E-01
 -3.28001400E-01 -2.31423210E+00  2.40534360E+00 -2.13200910E+00 -2.11378680E+00
 -3.09779100E-01 -2.15023140E+00 -2.29600980E+00  2.42356590E+00  2.42356590E+00
 -2.13200910E+00  2.44178820E+00 -3.09779100E-01 -2.15023140E+00  2.44178820E+00
  2.42356590E+00  2.42356590E+00 -3.28001400E-01 -2.13200910E+00  2.44178820E+00
 -3.46223700E-01 -2.11378680E+00  2.42356590E+00 -6.56002800E-01 -2.15023140E+00
  2.44178820E+00 -2.13200910E+00 -2.31423210E+00  2.40534360E+00 -2.29600980E+00
  2.42356590E+00  2.42356590E+00  2.42356590E+00 -3.46223700E-01 -2.15023140E+00
 -6.56002800E-01 -3.28001400E-01 -2.31423210E+00  2.40534360E+00 -2.13200910E+00
 -2.11378680E+00 -3.09779100E-01 -2.15023140E+00 -2.29600980E+00  2.42356590E+00
  2.42356590E+00 -2.13200910E+00  2.44178820E+00 -3.09779100E-01 -2.15023140E+00
  2.44178820E+00  2.42356590E+00  2.42356590E+00 -3.28001400E-01 -2.13200910E+00
  2.44178820E+00 -3.46223700E-01 -2.11378680E+00  2.42356590E+00 -6.56002800E-01
 -2.15023140E+00  2.44178820E+00 -2.13200910E+00 -2.31423210E+00  2.40534360E+00
 -2.29600980E+00  2.42356590E+00  2.42356590E+00  2.42356590E+00 -3.46223700E-01
 -2.15023140E+00 -6.56002800E-01 -3.28001400E-01 -2.31423210E+00  2.40534360E+00
 -2.13200910E+00 -2.11378680E+00 -3.09779100E-01 -2.15023140E+00 -2.29600980E+00
  2.42356590E+00  2.42356590E+00 -2.13200910E+00  2.44178820E+00 -3.09779100E-01
 -2.15023140E+00  2.44178820E+00  2.42356590E+00  2.42356590E+00 -3.28001400E-01
 -2.13200910E+00  2.44178820E+00 -3.46223700E-01 -2.11378680E+00  2.42356590E+00
 -6.56002800E-01 -2.15023140E+00  2.44178820E+00 -2.13200910E+00 -2.31423210E+00
  2.40534360E+00 -2.29600980E+00  2.42356590E+00  2.42356590E+00  2.42356590E+00
 -3.46223700E-01 -2.15023140E+00 -6.56002800E-01 -3.28001400E-01 -2.31423210E+00
  2.40534360E+00 -2.13200910E+00 -2.11378680E+00 -3.09779100E-01 -2.15023140E+00
 -2.29600980E+00  2.42356590E+00  2.42356590E+00 -2.13200910E+00  2.44178820E+00
 -3.09779100E-01 -2.15023140E+00  2.44178820E+00  2.42356590E+00  2.42356590E+00
 -3.28001400E-01 -2.13200910E+00  2.44178820E+00 -3.46223700E-01 -2.11378680E+00
  2.42356590E+00 -6.56002800E-01 -2.15023140E+00  2.44178820E+00 -2.13200910E+00
 -2.31423210E+00  2.40534360E+00 -2.29600980E+00  2.42356590E+00  2.42356590E+00
  2.42356590E+00 -3.46223700E-01 -2.15023140E+00 -6.56002800E-01 -3.28001400E-01
 -2.31423210E+00  2.40534360E+00 -2.13200910E+00 -2.11378680E+00 -3.09779100E-01
 -2.15023140E+00 -2.29600980E+00  2.42356590E+00  2.42356590E+00 -2.13200910E+00
  2.44178820E+00 -3.09779100E-01 -2.15023140E+00  2.44178820E+00  2.42356590E+00
  2.42356590E+00 -3.28001400E-01 -2.13200910E+00  2.44178820E+00 -3.46223700E-01
 -2.11378680E+00  2.42356590E+00 -6.56002800E-01 -2.15023140E+00  2.44178820E+00
 -2.13200910E+00 -2.31423210E+00  2.40534360E+00 -2.29600980E+00  2.42356590E+00
  2.42356590E+00  2.42356590E+00 -3.46223700E-01 -2.15023140E+00 -6.56002800E-01
 -3.28001400E-01 -2.31423210E+00  2.40534360E+00 -2.13200910E+00 -2.11378680E+00
 -3.09779100E-01 -2.15023140E+00 -2.29600980E+00  2.42356590E+00  2.42356590E+00
 -2.13200910E+00  2.44178820E+00 -3.09779100E-01 -2.15023140E+00  2.44178820E+00
  2.42356590E+00  2.42356590E+00 -3.28001400E-01 -2.13200910E+00  2.44178820E+00
 -3.46223700E-01 -2.11378680E+00  2.42356590E+00 -6.56002800E-01 -2.15023140E+00
  2.44178820E+00 -2.13200910E+00 -2.31423210E+00  2.40534360E+00 -2.29600980E+00
  2.42356590E+00  2.42356590E+00  2.42356590E+00 -3.46223700E-01 -2.15023140E+00
 -6.56002800E-01 -3.28001400E-01 -2.31423210E+00  2.40534360E+00 -2.13200910E+00
 -2.11378680E+00 -3.09779100E-01 -2.15023140E+00 -2.29600980E+00  2.42356590E+00
  2.42356590E+00 -2.13200910E+00  2.44178820E+00 -3.09779100E-01 -2.15023140E+00
  2.44178820E+00  2.42356590E+00  2.42356590E+00 -3.28001400E-01 -2.13200910E+00
  2.44178820E+00 -3.46223700E-01 -2.11378680E+00  2.42356590E+00 -6.56002800E-01
 -2.15023140E+00  2.44178820E+00 -2.13200910E+00 -2.31423210E+00  2.40534360E+00
 -2.29600980E+00  2.42356590E+00  2.42356590E+00  2.42356590E+00 -3.46223700E-01
 -2.15023140E+00 -6.56002800E-01 -3.28001400E-01 -2.31423210E+00  2.40534360E+00
 -2.13200910E+00 -2.11378680E+00 -3.09779100E-01 -2.15023140E+00 -2.29600980E+00
  2.42356590E+00  2.42356590E+00 -2.13200910E+00  2.44178820E+00 -3.09779100E-01
 -2.15023140E+00  2.44178820E+00  2.42356590E+00  2.42356590E+00 -3.28001400E-01
 -2.13200910E+00  2.44178820E+00 -3.46223700E-01 -2.11378680E+00  2.42356590E+00
 -6.56002800E-01 -2.15023140E+00  2.44178820E+00 -2.13200910E+00 -2.31423210E+00
  2.40534360E+00 -2.29600980E+00  2.42356590E+00  2.42356590E+00  2.42356590E+00
 -3.46223700E-01 -2.15023140E+00 -6.56002800E-01 -3.28001400E-01 -2.31423210E+00
  2.40534360E+00 -2.13200910E+00 -2.11378680E+00 -3.09779100E-01 -2.15023140E+00
 -2.29600980E+00  2.42356590E+00  2.42356590E+00 -2.13200910E+00  2.44178820E+00
 -3.09779100E-01 -2.15023140E+00  2.44178820E+00  2.42356590E+00  2.42356590E+00
 -3.28001400E-01 -2.13200910E+00  2.44178820E+00 -3.46223700E-01 -2.11378680E+00
  2.42356590E+00 -6.56002800E-01 -2.15023140E+00  2.44178820E+00 -2.13200910E+00
 -2.31423210E+00  2.40534360E+00 -2.29600980E+00  2.42356590E+00  2.42356590E+00
  2.42356590E+00 -3.46223700E-01 -2.15023140E+00 -6.56002800E-01 -3.28001400E-01
 -2.31423210E+00  2.40534360E+00 -2.13200910E+00 -2.11378680E+00 -3.09779100E-01
 -2.15023140E+00 -2.29600980E+00  2.42356590E+00  2.42356590E+00 -2.13200910E+00
  2.44178820E+00 -3.09779100E-01 -2.15023140E+00  2.44178820E+00  2.42356590E+00
  2.42356590E+00 -3.28001400E-01 -2.13200910E+00  2.44178820E+00 -3.46223700E-01
 -2.11378680E+00  2.42356590E+00 -6.56002800E-01 -2.15023140E+00  2.44178820E+00
 -2.13200910E+00 -2.31423210E+00  2.40534360E+00 -2.29600980E+00  2.42356590E+00
  2.42356590E+00  2.42356590E+00 -3.46223700E-01 -2.15023140E+00 -6.56002800E-01
 -3.28001400E-01 -2.31423210E+00  2.40534360E+00 -2.13200910E+00 -2.11378680E+00
 -3.09779100E-01 -2.15023140E+00 -2.29600980E+00  2.42356590E+00  2.42356590E+00
 -2.13200910E+00  2.44178820E+00 -3.09779100E-01 -2.15023140E+00  2.44178820E+00
  2.42356590E+00  2.42356590E+00 -3.28001400E-01 -2.13200910E+00  2.44178820E+00
 -3.46223700E-01 -2.11378680E+00  2.42356590E+00 -6.56002800E-01 -2.15023140E+00
  2.44178820E+00 -2.13200910E+00 -2.31423210E+00  2.40534360E+00 -2.29600980E+00
  2.42356590E+00  2.42356590E+00  2.42356590E+00 -3.46223700E-01 -2.15023140E+00
 -6.56002800E-01 -3.28001400E-01 -2.31423210E+00  2.40534360E+00 -2.13200910E+00
 -2.11378680E+00 -3.09779100E-01 -2.15023140E+00 -2.29600980E+00  2.42356590E+00
  2.42356590E+00 -2.13200910E+00  2.44178820E+00 -3.09779100E-01 -2.15023140E+00
  2.44178820E+00  2.42356590E+00  2.42356590E+00 -3.28001400E-01 -2.13200910E+00
  2.44178820E+00 -3.46223700E-01 -2.11378680E+00  2.42356590E+00 -6.56002800E-01
 -2.15023140E+00  2.44178820E+00 -2.13200910E+00 -2.31423210E+00  2.40534360E+00
 -2.29600980E+00  2.42356590E+00  2.42356590E+00  2.42356590E+00 -3.46223700E-01
 -2.15023140E+00 -6.56002800E-01 -3.28001400E-01 -2.31423210E+00  2.40534360E+00
 -2.13200910E+00 -2.11378680E+00 -3.09779100E-01 -2.15023140E+00 -2.29600980E+00
  2.42356590E+00  2.42356590E+00 -2.13200910E+00  2.44178820E+00 -3.09779100E-01
 -2.15023140E+00  2.44178820E+00  2.42356590E+00  2.42356590E+00 -3.28001400E-01
 -2.13200910E+00  2.44178820E+00 -3.46223700E-01 -2.11378680E+00  2.42356590E+00
 -6.56002800E-01 -2.15023140E+00  2.44178820E+00 -2.13200910E+00 -2.31423210E+00
  2.40534360E+00 -2.29600980E+00  2.42356590E+00  2.42356590E+00  2.42356590E+00
 -3.46223700E-01 -2.15023140E+00 -6.56002800E-01 -3.28001400E-01 -2.31423210E+00
  2.40534360E+00 -2.13200910E+00 -2.11378680E+00 -3.09779100E-01 -2.15023140E+00
 -2.29600980E+00  2.42356590E+00  2.42356590E+00 -2.13200910E+00  2.44178820E+00
 -3.09779100E-01 -2.15023140E+00  2.44178820E+00  2.42356590E+00  2.42356590E+00
 -3.28001400E-01 -2.13200910E+00  2.44178820E+00 -3.46223700E-01 -2.11378680E+00
  2.42356590E+00 -6.56002800E-01 -2.15023140E+00  2.44178820E+00 -2.13200910E+00
 -2.31423210E+00  2.40534360E+00 -2.29600980E+00  2.42356590E+00  2.42356590E+00
  2.42356590E+00 -3.46223700E-01 -2.15023140E+00 -6.56002800E-01 -3.28001400E-01
 -2.31423210E+00  2.40534360E+00 -2.13200910E+00 -2.11378680E+00 -3.09779100E-01
 -2.15023140E+00 -2.29600980E+00  2.42356590E+00  2.42356590E+00 -2.13200910E+00
  2.44178820E+00 -3.09779100E-01 -2.15023140E+00  2.44178820E+00  2.42356590E+00
  2.42356590E+00 -3.28001400E-01 -2.13200910E+00  2.44178820E+00 -3.46223700E-01
 -2.11378680E+00  2.42356590E+00 -6.56002800E-01 -2.15023140E+00  2.44178820E+00
 -2.13200910E+00 -2.31423210E+00  2.40534360E+00 -2.29600980E+00  2.42356590E+00
  2.42356590E+00  2.42356590E+00 -3.46223700E-01 -2.15023140E+00 -6.56002800E-01
 -3.28001400E-01 -2.31423210E+00  2.40534360E+00 -2.13200910E+00 -2.11378680E+00
 -3.09779100E-01 -2.15023140E+00 -2.29600980E+00  2.42356590E+00  2.42356590E+00
 -2.13200910E+00  2.44178820E+00 -3.09779100E-01 -2.15023140E+00  2.44178820E+00
  2.42356590E+00  2.42356590E+00 -3.28001400E-01 -2.13200910E+00  2.44178820E+00
 -3.46223700E-01 -2.11378680E+00  2.42356590E+00 -6.56002800E-01 -2.15023140E+00
  2.44178820E+00 -2.13200910E+00 -2.31423210E+00  2.40534360E+00 -2.29600980E+00
  2.42356590E+00  2.42356590E+00  2.42356590E+00 -3.46223700E-01 -2.15023140E+00
 -6.56002800E-01 -3.28001400E-01 -2.31423210E+00  2.40534360E+00 -2.13200910E+00
 -2.11378680E+00 -3.09779100E-01 -2.15023140E+00 -2.29600980E+00  2.42356590E+00
  2.42356590E+00 -2.13200910E+00  2.44178820E+00 -3.09779100E-01 -2.15023140E+00
  2.44178820E+00  2.42356590E+00  2.42356590E+00 -3.28001400E-01 -2.13200910E+00
  2.44178820E+00 -3.46223700E-01 -2.11378680E+00  2.42356590E+00 -6.56002800E-01
 -2.15023140E+00  2.44178820E+00 -2.13200910E+00 -2.31423210E+00  2.40534360E+00
 -2.29600980E+00  2.42356590E+00  2.42356590E+00  2.42356590E+00 -3.46223700E-01
 -2.15023140E+00 -6.56002800E-01 -3.28001400E-01 -2.31423210E+00  2.40534360E+00
 -2.13200910E+00 -2.11378680E+00 -3.09779100E-01 -2.15023140E+00 -2.29600980E+00
  2.42356590E+00  2.42356590E+00 -2.13200910E+00  2.44178820E+00 -3.09779100E-01
 -2.15023140E+00  2.44178820E+00  2.42356590E+00  2.42356590E+00 -3.28001400E-01
 -2.13200910E+00  2.44178820E+00 -3.46223700E-01 -2.11378680E+00  2.42356590E+00
 -6.56002800E-01 -2.15023140E+00  2.44178820E+00 -2.13200910E+00 -2.31423210E+00
  2.40534360E+00 -2.29600980E+00  2.42356590E+00  2.42356590E+00  2.42356590E+00
 -3.46223700E-01 -2.15023140E+00 -6.56002800E-01 -3.28001400E-01 -2.31423210E+00
  2.40534360E+00 -2.13200910E+00 -2.11378680E+00 -3.09779100E-01 -2.15023140E+00
 -2.29600980E+00  2.42356590E+00  2.42356590E+00 -2.13200910E+00  2.44178820E+00
 -3.09779100E-01 -2.15023140E+00  2.44178820E+00  2.42356590E+00  2.42356590E+00
 -3.28001400E-01 -2.13200910E+00  2.44178820E+00 -3.46223700E-01 -2.11378680E+00
  2.42356590E+00 -6.56002800E-01 -2.15023140E+00  2.44178820E+00 -2.13200910E+00
 -2.31423210E+00  2.40534360E+00 -2.29600980E+00  2.42356590E+00  2.42356590E+00
  2.42356590E+00 -3.46223700E-01 -2.15023140E+00 -6.56002800E-01 -3.28001400E-01
 -2.31423210E+00  2.40534360E+00 -2.13200910E+00 -2.11378680E+00 -3.09779100E-01
 -2.15023140E+00 -2.29600980E+00  2.42356590E+00  2.42356590E+00 -2.13200910E+00
  2.44178820E+00 -3.09779100E-01 -2.15023140E+00  2.44178820E+00  2.42356590E+00
  2.42356590E+00 -3.28001400E-01 -2.13200910E+00  2.44178820E+00 -3.46223700E-01
 -2.11378680E+00  2.42356590E+00 -6.56002800E-01 -2.15023140E+00  2.44178820E+00
 -2.13200910E+00 -2.31423210E+00  2.40534360E+00 -2.29600980E+00  2.42356590E+00
  2.42356590E+00  2.42356590E+00 -3.46223700E-01 -2.15023140E+00 -6.56002800E-01
 -3.28001400E-01 -2.31423210E+00  2.40534360E+00 -2.13200910E+00 -2.11378680E+00
 -3.09779100E-01 -2.15023140E+00 -2.29600980E+00  2.42356590E+00  2.42356590E+00
 -2.13200910E+00  2.44178820E+00 -3.09779100E-01 -2.15023140E+00  2.44178820E+00
  2.42356590E+00  2.42356590E+00 -3.28001400E-01 -2.13200910E+00  2.44178820E+00
 -3.46223700E-01 -2.11378680E+00  2.42356590E+00 -6.56002800E-01 -2.15023140E+00
  2.44178820E+00 -2.13200910E+00 -2.31423210E+00  2.40534360E+00 -2.29600980E+00
  2.42356590E+00  2.42356590E+00  2.42356590E+00 -3.46223700E-01 -2.15023140E+00
 -6.56002800E-01 -3.28001400E-01 -2.31423210E+00  2.40534360E+00 -2.13200910E+00
 -2.11378680E+00 -3.09779100E-01 -2.15023140E+00 -2.29600980E+00  2.42356590E+00
  2.42356590E+00 -2.13200910E+00  2.44178820E+00 -3.09779100E-01 -2.15023140E+00
  2.44178820E+00  2.42356590E+00  2.42356590E+00 -3.28001400E-01 -2.13200910E+00
  2.44178820E+00 -3.46223700E-01 -2.11378680E+00  2.42356590E+00 -6.56002800E-01
 -2.15023140E+00  2.44178820E+00 -2.13200910E+00 -2.31423210E+00  2.40534360E+00
 -2.29600980E+00  2.42356590E+00  2.42356590E+00  2.42356590E+00 -3.46223700E-01
 -2.15023140E+00 -6.56002800E-01 -3.28001400E-01 -2.31423210E+00  2.40534360E+00
 -2.13200910E+00 -2.11378680E+00 -3.09779100E-01 -2.15023140E+00 -2.29600980E+00
  2.42356590E+00  2.42356590E+00 -2.13200910E+00  2.44178820E+00 -3.09779100E-01
 -2.15023140E+00  2.44178820E+00  2.42356590E+00  2.42356590E+00 -3.28001400E-01
 -2.13200910E+00  2.44178820E+00 -3.46223700E-01 -2.11378680E+00  2.42356590E+00
 -6.56002800E-01 -2.15023140E+00  2.44178820E+00 -2.13200910E+00 -2.31423210E+00
  2.40534360E+00 -2.29600980E+00  2.42356590E+00  2.42356590E+00  2.42356590E+00
 -3.46223700E-01 -2.15023140E+00 -6.56002800E-01 -3.28001400E-01 -2.31423210E+00
  2.40534360E+00 -2.13200910E+00 -2.11378680E+00 -3.09779100E-01 -2.15023140E+00
 -2.29600980E+00  2.42356590E+00  2.42356590E+00 -2.13200910E+00  2.44178820E+00
 -3.09779100E-01 -2.15023140E+00  2.44178820E+00  2.42356590E+00  2.42356590E+00
 -3.28001400E-01 -2.13200910E+00  2.44178820E+00 -3.46223700E-01 -2.11378680E+00
  2.42356590E+00 -6.56002800E-01 -2.15023140E+00  2.44178820E+00 -2.13200910E+00
 -2.31423210E+00  2.40534360E+00 -2.29600980E+00  2.42356590E+00  2.42356590E+00
  2.42356590E+00 -3.46223700E-01 -2.15023140E+00 -6.56002800E-01 -3.28001400E-01
 -2.31423210E+00  2.40534360E+00 -2.13200910E+00 -2.11378680E+00 -3.09779100E-01
 -2.15023140E+00 -2.29600980E+00  2.42356590E+00  2.42356590E+00 -2.13200910E+00
  2.44178820E+00 -3.09779100E-01 -2.15023140E+00  2.44178820E+00  2.42356590E+00
  2.42356590E+00 -3.28001400E-01 -2.13200910E+00  2.44178820E+00 -3.46223700E-01
 -2.11378680E+00  2.42356590E+00 -6.56002800E-01 -2.15023140E+00  2.44178820E+00
 -2.13200910E+00 -2.31423210E+00  2.40534360E+00 -2.29600980E+00  2.42356590E+00
  2.42356590E+00  2.42356590E+00 -3.46223700E-01 -2.15023140E+00 -6.56002800E-01
 -3.28001400E-01 -2.31423210E+00  2.40534360E+00 -2.13200910E+00 -2.11378680E+00
 -3.09779100E-01 -2.15023140E+00 -2.29600980E+00  2.42356590E+00  2.42356590E+00
 -2.13200910E+00  2.44178820E+00 -3.09779100E-01 -2.15023140E+00  2.44178820E+00
  2.42356590E+00  2.42356590E+00 -3.28001400E-01 -2.13200910E+00  2.44178820E+00
 -3.46223700E-01 -2.11378680E+00  2.42356590E+00 -6.56002800E-01 -2.15023140E+00
  2.44178820E+00 -2.13200910E+00 -2.31423210E+00  2.40534360E+00 -2.29600980E+00
  2.42356590E+00  2.42356590E+00  2.42356590E+00 -3.46223700E-01 -2.15023140E+00
 -6.56002800E-01 -3.28001400E-01 -2.31423210E+00  2.40534360E+00 -2.13200910E+00
 -2.11378680E+00 -3.09779100E-01 -2.15023140E+00 -2.29600980E+00  2.42356590E+00
  2.42356590E+00 -2.13200910E+00  2.44178820E+00 -3.09779100E-01 -2.15023140E+00
  2.44178820E+00  2.42356590E+00  2.42356590E+00 -3.28001400E-01 -2.13200910E+00
  2.44178820E+00 -3.46223700E-01 -2.11378680E+00  2.42356590E+00 -6.56002800E-01
 -2.15023140E+00  2.44178820E+00 -2.13200910E+00 -2.31423210E+00  2.40534360E+00
 -2.29600980E+00  2.42356590E+00  2.42356590E+00  2.42356590E+00 -3.46223700E-01
 -2.15023140E+00 -6.56002800E-01 -3.28001400E-01 -2.31423210E+00  2.40534360E+00
 -2.13200910E+00 -2.11378680E+00 -3.09779100E-01 -2.15023140E+00 -2.29600980E+00
  2.42356590E+00  2.42356590E+00 -2.13200910E+00  2.44178820E+00 -3.09779100E-01
 -2.15023140E+00  2.44178820E+00  2.42356590E+00  2.42356590E+00 -3.28001400E-01
 -2.13200910E+00  2.44178820E+00 -3.46223700E-01 -2.11378680E+00  2.42356590E+00
 -6.56002800E-01 -2.15023140E+00  2.44178820E+00 -2.13200910E+00 -2.31423210E+00
  2.40534360E+00 -2.29600980E+00  2.42356590E+00  2.42356590E+00  2.42356590E+00
 -3.46223700E-01 -2.15023140E+00 -6.56002800E-01 -3.28001400E-01 -2.31423210E+00
  2.40534360E+00 -2.13200910E+00 -2.11378680E+00 -3.09779100E-01 -2.15023140E+00
 -2.29600980E+00  2.42356590E+00  2.42356590E+00 -2.13200910E+00  2.44178820E+00
 -3.09779100E-01 -2.15023140E+00  2.44178820E+00  2.42356590E+00  2.42356590E+00
 -3.28001400E-01 -2.13200910E+00  2.44178820E+00 -3.46223700E-01 -2.11378680E+00
  2.42356590E+00 -6.56002800E-01 -2.15023140E+00  2.44178820E+00 -2.13200910E+00
 -2.31423210E+00  2.40534360E+00 -2.29600980E+00  2.42356590E+00  2.42356590E+00
  2.42356590E+00 -3.46223700E-01 -2.15023140E+00 -6.56002800E-01 -3.28001400E-01
 -2.31423210E+00  2.40534360E+00 -2.13200910E+00 -2.11378680E+00 -3.09779100E-01
 -2.15023140E+00 -2.29600980E+00  2.42356590E+00  2.42356590E+00 -2.13200910E+00
  2.44178820E+00 -3.09779100E-01 -2.15023140E+00  2.44178820E+00  2.42356590E+00
  2.42356590E+00 -3.28001400E-01 -2.13200910E+00  2.44178820E+00 -3.46223700E-01
 -2.11378680E+00  2.42356590E+00 -6.56002800E-01 -2.15023140E+00  2.44178820E+00
 -2.13200910E+00 -2.31423210E+00  2.40534360E+00 -2.29600980E+00  2.42356590E+00
  2.42356590E+00  2.42356590E+00 -3.46223700E-01 -2.15023140E+00 -6.56002800E-01
 -3.28001400E-01 -2.31423210E+00  2.40534360E+00 -2.13200910E+00 -2.11378680E+00
 -3.09779100E-01 -2.15023140E+00 -2.29600980E+00  2.42356590E+00  2.42356590E+00
 -2.13200910E+00  2.44178820E+00 -3.09779100E-01 -2.15023140E+00  2.44178820E+00
  2.42356590E+00  2.42356590E+00 -3.28001400E-01 -2.13200910E+00  2.44178820E+00
 -3.46223700E-01 -2.11378680E+00  2.42356590E+00 -6.56002800E-01 -2.15023140E+00
  2.44178820E+00 -2.13200910E+00 -2.31423210E+00  2.40534360E+00 -2.29600980E+00
  2.42356590E+00  2.42356590E+00  2.42356590E+00 -3.46223700E-01 -2.15023140E+00
 -6.56002800E-01 -3.28001400E-01 -2.31423210E+00  2.40534360E+00 -2.13200910E+00
 -2.11378680E+00 -3.09779100E-01 -2.15023140E+00 -2.29600980E+00  2.42356590E+00
  2.42356590E+00 -2.13200910E+00  2.44178820E+00 -3.09779100E-01 -2.15023140E+00
  2.44178820E+00  2.42356590E+00  2.42356590E+00 -3.28001400E-01 -2.13200910E+00
  2.44178820E+00 -3.46223700E-01 -2.11378680E+00  2.42356590E+00 -6.56002800E-01
 -2.15023140E+00  2.44178820E+00 -2.13200910E+00 -2.31423210E+00  2.40534360E+00
 -2.29600980E+00  2.42356590E+00  2.42356590E+00  2.42356590E+00 -3.46223700E-01
 -2.15023140E+00 -6.56002800E-01 -3.28001400E-01 -2.31423210E+00  2.40534360E+00
 -2.13200910E+00 -2.11378680E+00 -3.09779100E-01 -2.15023140E+00 -2.29600980E+00
  2.42356590E+00  2.42356590E+00 -2.13200910E+00  2.44178820E+00 -3.09779100E-01
 -2.15023140E+00  2.44178820E+00  2.42356590E+00  2.42356590E+00 -3.28001400E-01
 -2.13200910E+00  2.44178820E+00 -3.46223700E-01 -2.11378680E+00  2.42356590E+00
 -6.56002800E-01 -2.15023140E+00  2.44178820E+00 -2.13200910E+00 -2.31423210E+00
  2.40534360E+00 -2.29600980E+00  2.42356590E+00  2.42356590E+00  2.42356590E+00
 -3.46223700E-01 -2.15023140E+00 -6.56002800E-01 -3.28001400E-01 -2.31423210E+00
  2.40534360E+00 -2.13200910E+00 -2.11378680E+00 -3.09779100E-01 -2.15023140E+00
 -2.29600980E+00  2.42356590E+00  2.42356590E+00 -2.13200910E+00  2.44178820E+00
 -3.09779100E-01 -2.15023140E+00  2.44178820E+00  2.42356590E+00  2.42356590E+00
 -3.28001400E-01 -2.13200910E+00  2.44178820E+00 -3.46223700E-01 -2.11378680E+00
  2.42356590E+00 -6.56002800E-01 -2.15023140E+00  2.44178820E+00 -2.13200910E+00
 -2.31423210E+00  2.40534360E+00 -2.29600980E+00  2.42356590E+00  2.42356590E+00
  2.42356590E+00 -3.46223700E-01 -2.15023140E+00 -6.56002800E-01 -3.28001400E-01
 -2.31423210E+00  2.40534360E+00 -2.13200910E+00 -2.11378680E+00 -3.09779100E-01
 -2.15023140E+00 -2.29600980E+00  2.42356590E+00  2.42356590E+00 -2.13200910E+00
  2.44178820E+00 -3.09779100E-01 -2.15023140E+00  2.44178820E+00  2.42356590E+00
  2.42356590E+00 -3.28001400E-01 -2.13200910E+00  2.44178820E+00 -3.46223700E-01
 -2.11378680E+00  2.42356590E+00 -6.56002800E-01 -2.15023140E+00  2.44178820E+00
 -2.13200910E+00 -2.31423210E+00  2.40534360E+00 -2.29600980E+00  2.42356590E+00
  2.42356590E+00  2.42356590E+00 -3.46223700E-01 -2.15023140E+00 -6.56002800E-01
 -3.28001400E-01 -2.31423210E+00  2.40534360E+00 -2.13200910E+00 -2.11378680E+00
 -3.09779100E-01 -2.15023140E+00 -2.29600980E+00  2.42356590E+00  2.42356590E+00
 -2.13200910E+00  2.44178820E+00 -3.09779100E-01 -2.15023140E+00  2.44178820E+00
  2.42356590E+00  2.42356590E+00 -3.28001400E-01 -2.13200910E+00  2.44178820E+00
 -3.46223700E-01 -2.11378680E+00  2.42356590E+00 -6.56002800E-01 -2.15023140E+00
  2.44178820E+00 -2.13200910E+00 -2.31423210E+00  2.40534360E+00 -2.29600980E+00
  2.42356590E+00  2.42356590E+00  2.42356590E+00 -3.46223700E-01 -2.15023140E+00
 -6.56002800E-01 -3.28001400E-01 -2.31423210E+00  2.40534360E+00 -2.13200910E+00
 -2.11378680E+00 -3.09779100E-01 -2.15023140E+00 -2.29600980E+00  2.42356590E+00
  2.42356590E+00 -2.13200910E+00  2.44178820E+00 -3.09779100E-01 -2.15023140E+00
  2.44178820E+00  2.42356590E+00  2.42356590E+00 -3.28001400E-01 -2.13200910E+00
  2.44178820E+00 -3.46223700E-01 -2.11378680E+00  2.42356590E+00 -6.56002800E-01
 -2.15023140E+00  2.44178820E+00 -2.13200910E+00 -2.31423210E+00  2.40534360E+00
 -2.29600980E+00  2.42356590E+00  2.42356590E+00  2.42356590E+00 -3.46223700E-01
 -2.15023140E+00 -6.56002800E-01 -3.28001400E-01 -2.31423210E+00  2.40534360E+00
 -2.13200910E+00 -2.11378680E+00 -3.09779100E-01 -2.15023140E+00 -2.29600980E+00
  2.42356590E+00  2.42356590E+00 -2.13200910E+00  2.44178820E+00 -3.09779100E-01
 -2.15023140E+00  2.44178820E+00  2.42356590E+00  2.42356590E+00 -3.28001400E-01
 -2.13200910E+00  2.44178820E+00 -3.46223700E-01 -2.11378680E+00  2.42356590E+00
 -6.56002800E-01 -2.15023140E+00  2.44178820E+00 -2.13200910E+00 -2.31423210E+00
  2.40534360E+00 -2.29600980E+00  2.42356590E+00  2.42356590E+00  2.42356590E+00
 -3.46223700E-01 -2.15023140E+00 -6.56002800E-01 -3.28001400E-01 -2.31423210E+00
  2.40534360E+00 -2.13200910E+00 -2.11378680E+00 -3.09779100E-01 -2.15023140E+00
 -2.29600980E+00  2.42356590E+00  2.42356590E+00 -2.13200910E+00  2.44178820E+00
 -3.09779100E-01 -2.15023140E+00  2.44178820E+00  2.42356590E+00  2.42356590E+00
 -3.28001400E-01 -2.13200910E+00  2.44178820E+00 -3.46223700E-01 -2.11378680E+00
  2.42356590E+00 -6.56002800E-01 -2.15023140E+00  2.44178820E+00 -2.13200910E+00
 -2.31423210E+00  2.40534360E+00 -2.29600980E+00  2.42356590E+00  2.42356590E+00
  2.42356590E+00 -3.46223700E-01 -2.15023140E+00 -6.56002800E-01 -3.28001400E-01
 -2.31423210E+00  2.40534360E+00 -2.13200910E+00 -2.11378680E+00 -3.09779100E-01
 -2.15023140E+00 -2.29600980E+00  2.42356590E+00  2.42356590E+00 -2.13200910E+00
  2.44178820E+00 -3.09779100E-01 -2.15023140E+00  2.44178820E+00  2.42356590E+00
  2.42356590E+00 -3.28001400E-01 -2.13200910E+00  2.44178820E+00 -3.46223700E-01
 -2.11378680E+00  2.42356590E+00 -6.56002800E-01 -2.15023140E+00  2.44178820E+00
 -2.13200910E+00 -2.31423210E+00  2.40534360E+00 -2.29600980E+00  2.42356590E+00
  2.42356590E+00  2.42356590E+00 -3.46223700E-01 -2.15023140E+00 -6.56002800E-01
 -3.28001400E-01 -2.31423210E+00  2.40534360E+00 -2.13200910E+00 -2.11378680E+00
 -3.09779100E-01 -2.15023140E+00 -2.29600980E+00  2.42356590E+00  2.42356590E+00
 -2.13200910E+00  2.44178820E+00 -3.09779100E-01 -2.15023140E+00  2.44178820E+00
  2.42356590E+00  2.42356590E+00 -3.28001400E-01 -2.13200910E+00  2.44178820E+00
 -3.46223700E-01 -2.11378680E+00  2.42356590E+00 -6.56002800E-01 -2.15023140E+00
  2.44178820E+00 -2.13200910E+00 -2.31423210E+00  2.40534360E+00 -2.29600980E+00
  2.42356590E+00  2.42356590E+00  2.42356590E+00 -3.46223700E-01 -2.15023140E+00
 -6.56002800E-01 -3.28001400E-01 -2.31423210E+00  2.40534360E+00 -2.13200910E+00
 -2.11378680E+00 -3.09779100E-01 -2.15023140E+00 -2.29600980E+00  2.42356590E+00
  2.42356590E+00 -2.13200910E+00  2.44178820E+00 -3.09779100E-01 -2.15023140E+00
  2.44178820E+00  2.42356590E+00  2.42356590E+00 -3.28001400E-01 -2.13200910E+00
  2.44178820E+00 -3.46223700E-01 -2.11378680E+00  2.42356590E+00 -6.56002800E-01
 -2.15023140E+00  2.44178820E+00 -2.13200910E+00 -2.31423210E+00  2.40534360E+00
 -2.29600980E+00  2.42356590E+00  2.42356590E+00  2.42356590E+00 -3.46223700E-01
 -2.15023140E+00 -6.56002800E-01 -3.28001400E-01 -2.31423210E+00  2.40534360E+00
 -2.13200910E+00 -2.11378680E+00 -3.09779100E-01 -2.15023140E+00 -2.29600980E+00
  2.42356590E+00  2.42356590E+00 -2.13200910E+00  2.44178820E+00 -3.09779100E-01
 -2.15023140E+00  2.44178820E+00  2.42356590E+00  2.42356590E+00 -3.28001400E-01
 -2.13200910E+00  2.44178820E+00 -3.46223700E-01 -2.11378680E+00  2.42356590E+00
 -6.56002800E-01 -2.15023140E+00  2.44178820E+00 -2.13200910E+00 -2.31423210E+00
  2.40534360E+00 -2.29600980E+00  2.42356590E+00  2.42356590E+00  2.42356590E+00
 -3.46223700E-01 -2.15023140E+00 -6.56002800E-01 -3.28001400E-01 -2.31423210E+00
  2.40534360E+00 -2.13200910E+00 -2.11378680E+00 -3.09779100E-01 -2.15023140E+00
 -2.29600980E+00  2.42356590E+00  2.42356590E+00 -2.13200910E+00  2.44178820E+00
 -3.09779100E-01 -2.15023140E+00  2.44178820E+00  2.42356590E+00  2.42356590E+00
 -3.28001400E-01 -2.13200910E+00  2.44178820E+00 -3.46223700E-01 -2.11378680E+00
  2.42356590E+00 -6.56002800E-01 -2.15023140E+00  2.44178820E+00 -2.13200910E+00
 -2.31423210E+00  2.40534360E+00 -2.29600980E+00  2.42356590E+00  2.42356590E+00
  2.42356590E+00 -3.46223700E-01 -2.15023140E+00 -6.56002800E-01 -3.28001400E-01
 -2.31423210E+00  2.40534360E+00 -2.13200910E+00 -2.11378680E+00 -3.09779100E-01
 -2.15023140E+00 -2.29600980E+00  2.42356590E+00  2.42356590E+00 -2.13200910E+00
  2.44178820E+00 -3.09779100E-01 -2.15023140E+00  2.44178820E+00  2.42356590E+00
  2.42356590E+00 -3.28001400E-01 -2.13200910E+00  2.44178820E+00 -3.46223700E-01
 -2.11378680E+00  2.42356590E+00 -6.56002800E-01 -2.15023140E+00  2.44178820E+00
 -2.13200910E+00 -2.31423210E+00  2.40534360E+00 -2.29600980E+00  2.42356590E+00
  2.42356590E+00  2.42356590E+00 -3.46223700E-01 -2.15023140E+00 -6.56002800E-01
 -3.28001400E-01 -2.31423210E+00  2.40534360E+00 -2.13200910E+00 -2.11378680E+00
 -3.09779100E-01 -2.15023140E+00 -2.29600980E+00  2.42356590E+00  2.42356590E+00
 -2.13200910E+00  2.44178820E+00 -3.09779100E-01 -2.15023140E+00  2.44178820E+00
  2.42356590E+00  2.42356590E+00 -3.28001400E-01 -2.13200910E+00  2.44178820E+00
 -3.46223700E-01 -2.11378680E+00  2.42356590E+00 -6.56002800E-01 -2.15023140E+00
  2.44178820E+00 -2.13200910E+00 -2.31423210E+00  2.40534360E+00 -2.29600980E+00
  2.42356590E+00  2.42356590E+00  2.42356590E+00 -3.46223700E-01 -2.15023140E+00
 -6.56002800E-01 -3.28001400E-01 -2.31423210E+00  2.40534360E+00 -2.13200910E+00
 -2.11378680E+00 -3.09779100E-01 -2.15023140E+00 -2.29600980E+00  2.42356590E+00
  2.42356590E+00 -2.13200910E+00  2.44178820E+00 -3.09779100E-01 -2.15023140E+00
  2.44178820E+00  2.42356590E+00  2.42356590E+00 -3.28001400E-01 -2.13200910E+00
  2.44178820E+00 -3.46223700E-01 -2.11378680E+00  2.42356590E+00 -6.56002800E-01
 -2.15023140E+00  2.44178820E+00 -2.13200910E+00 -2.31423210E+00  2.40534360E+00
 -2.29600980E+00  2.42356590E+00  2.42356590E+00  2.42356590E+00 -3.46223700E-01
 -2.15023140E+00 -6.56002800E-01 -3.28001400E-01 -2.31423210E+00  2.40534360E+00
 -2.13200910E+00 -2.11378680E+00 -3.09779100E-01 -2.15023140E+00 -2.29600980E+00
  2.42356590E+00  2.42356590E+00 -2.13200910E+00  2.44178820E+00 -3.09779100E-01
 -2.15023140E+00  2.44178820E+00  2.42356590E+00  2.42356590E+00 -3.28001400E-01
 -2.13200910E+00  2.44178820E+00 -3.46223700E-01 -2.11378680E+00  2.42356590E+00
 -6.56002800E-01 -2.15023140E+00  2.44178820E+00 -2.13200910E+00 -2.31423210E+00
  2.40534360E+00 -2.29600980E+00  2.42356590E+00  2.42356590E+00  2.42356590E+00
 -3.46223700E-01 -2.15023140E+00 -6.56002800E-01 -3.28001400E-01 -2.31423210E+00
  2.40534360E+00 -2.13200910E+00 -2.11378680E+00 -3.09779100E-01 -2.15023140E+00
 -2.29600980E+00  2.42356590E+00  2.42356590E+00 -2.13200910E+00  2.44178820E+00
 -3.09779100E-01 -2.15023140E+00  2.44178820E+00  2.42356590E+00  2.42356590E+00
 -3.28001400E-01 -2.13200910E+00  2.44178820E+00 -3.46223700E-01 -2.11378680E+00
  2.42356590E+00 -6.56002800E-01 -2.15023140E+00  2.44178820E+00 -2.13200910E+00
 -2.31423210E+00  2.40534360E+00 -2.29600980E+00  2.42356590E+00  2.42356590E+00
  2.42356590E+00 -3.46223700E-01 -2.15023140E+00 -6.56002800E-01 -3.28001400E-01
 -2.31423210E+00  2.40534360E+00 -2.13200910E+00 -2.11378680E+00 -3.09779100E-01
 -2.15023140E+00 -2.29600980E+00  2.42356590E+00  2.42356590E+00 -2.13200910E+00
  2.44178820E+00 -3.09779100E-01 -2.15023140E+00  2.44178820E+00  2.42356590E+00
  2.42356590E+00 -3.28001400E-01 -2.13200910E+00  2.44178820E+00 -3.46223700E-01
 -2.11378680E+00  2.42356590E+00 -6.56002800E-01 -2.15023140E+00  2.44178820E+00
 -2.13200910E+00 -2.31423210E+00  2.40534360E+00 -2.29600980E+00  2.42356590E+00
  2.42356590E+00  2.42356590E+00 -3.46223700E-01 -2.15023140E+00 -6.56002800E-01
 -3.28001400E-01 -2.31423210E+00  2.40534360E+00 -2.13200910E+00 -2.11378680E+00
 -3.09779100E-01 -2.15023140E+00 -2.29600980E+00  2.42356590E+00  2.42356590E+00
 -2.13200910E+00  2.44178820E+00 -3.09779100E-01 -2.15023140E+00  2.44178820E+00
  2.42356590E+00  2.42356590E+00 -3.28001400E-01 -2.13200910E+00  2.44178820E+00
 -3.46223700E-01 -2.11378680E+00  2.42356590E+00 -6.56002800E-01 -2.15023140E+00
  2.44178820E+00 -2.13200910E+00 -2.31423210E+00  2.40534360E+00 -2.29600980E+00
  2.42356590E+00  2.42356590E+00  2.42356590E+00 -3.46223700E-01 -2.15023140E+00
 -6.56002800E-01 -3.28001400E-01 -2.31423210E+00  2.40534360E+00 -2.13200910E+00
 -2.11378680E+00 -3.09779100E-01 -2.15023140E+00 -2.29600980E+00  2.42356590E+00
  2.42356590E+00 -2.13200910E+00  2.44178820E+00 -3.09779100E-01 -2.15023140E+00
  2.44178820E+00  2.42356590E+00  2.42356590E+00 -3.28001400E-01 -2.13200910E+00
  2.44178820E+00 -3.46223700E-01 -2.11378680E+00  2.42356590E+00 -6.56002800E-01
 -2.15023140E+00  2.44178820E+00 -2.13200910E+00 -2.31423210E+00  2.40534360E+00
 -2.29600980E+00  2.42356590E+00  2.42356590E+00  2.42356590E+00 -3.46223700E-01
 -2.15023140E+00 -6.56002800E-01 -3.28001400E-01 -2.31423210E+00  2.40534360E+00
 -2.13200910E+00 -2.11378680E+00 -3.09779100E-01 -2.15023140E+00 -2.29600980E+00
  2.42356590E+00  2.42356590E+00 -2.13200910E+00  2.44178820E+00 -3.09779100E-01
 -2.15023140E+00  2.44178820E+00  2.42356590E+00  2.42356590E+00 -3.28001400E-01
 -2.13200910E+00  2.44178820E+00 -3.46223700E-01 -2.11378680E+00  2.42356590E+00
 -6.56002800E-01 -2.15023140E+00  2.44178820E+00 -2.13200910E+00 -2.31423210E+00
  2.40534360E+00 -2.29600980E+00  2.42356590E+00  2.42356590E+00  2.42356590E+00
 -3.46223700E-01 -2.15023140E+00 -6.56002800E-01 -3.28001400E-01 -2.31423210E+00
  2.40534360E+00 -2.13200910E+00 -2.11378680E+00 -3.09779100E-01 -2.15023140E+00
 -2.29600980E+00  2.42356590E+00  2.42356590E+00 -2.13200910E+00  2.44178820E+00
 -3.09779100E-01 -2.15023140E+00  2.44178820E+00  2.42356590E+00  2.42356590E+00
 -3.28001400E-01 -2.13200910E+00  2.44178820E+00 -3.46223700E-01 -2.11378680E+00
  2.42356590E+00 -6.56002800E-01 -2.15023140E+00  2.44178820E+00 -2.13200910E+00
 -2.31423210E+00  2.40534360E+00 -2.29600980E+00  2.42356590E+00  2.42356590E+00
  2.42356590E+00 -3.46223700E-01 -2.15023140E+00 -6.56002800E-01 -3.28001400E-01
 -2.31423210E+00  2.40534360E+00 -2.13200910E+00 -2.11378680E+00 -3.09779100E-01
 -2.15023140E+00 -2.29600980E+00  2.42356590E+00  2.42356590E+00 -2.13200910E+00
  2.44178820E+00 -3.09779100E-01 -2.15023140E+00  2.44178820E+00  2.42356590E+00
  2.42356590E+00 -3.28001400E-01 -2.13200910E+00  2.44178820E+00 -3.46223700E-01
 -2.11378680E+00  2.42356590E+00 -6.56002800E-01 -2.15023140E+00  2.44178820E+00
 -2.13200910E+00 -2.31423210E+00  2.40534360E+00 -2.29600980E+00  2.42356590E+00
  2.42356590E+00  2.42356590E+00 -3.46223700E-01 -2.15023140E+00 -6.56002800E-01
 -3.28001400E-01 -2.31423210E+00  2.40534360E+00 -2.13200910E+00 -2.11378680E+00
 -3.09779100E-01 -2.15023140E+00 -2.29600980E+00  2.42356590E+00  2.42356590E+00
 -2.13200910E+00  2.44178820E+00 -3.09779100E-01 -2.15023140E+00  2.44178820E+00
  2.42356590E+00  2.42356590E+00 -3.28001400E-01 -2.13200910E+00  2.44178820E+00
 -3.46223700E-01 -2.11378680E+00  2.42356590E+00 -6.56002800E-01 -2.15023140E+00
  2.44178820E+00 -2.13200910E+00 -2.31423210E+00  2.40534360E+00 -2.29600980E+00
  2.42356590E+00  2.42356590E+00  2.42356590E+00 -3.46223700E-01 -2.15023140E+00
 -6.56002800E-01 -3.28001400E-01 -2.31423210E+00  2.40534360E+00 -2.13200910E+00
 -2.11378680E+00 -3.09779100E-01 -2.15023140E+00 -2.29600980E+00  2.42356590E+00
  2.42356590E+00 -2.13200910E+00  2.44178820E+00 -3.09779100E-01 -2.15023140E+00
  2.44178820E+00  2.42356590E+00  2.42356590E+00 -3.28001400E-01 -2.13200910E+00
  2.44178820E+00 -3.46223700E-01 -2.11378680E+00  2.42356590E+00 -6.56002800E-01
 -2.15023140E+00  2.44178820E+00 -2.13200910E+00 -2.31423210E+00  2.40534360E+00
 -2.29600980E+00  2.42356590E+00  2.42356590E+00  2.42356590E+00 -3.46223700E-01
 -2.15023140E+00 -6.56002800E-01 -3.28001400E-01 -2.31423210E+00  2.40534360E+00
 -2.13200910E+00 -2.11378680E+00 -3.09779100E-01 -2.15023140E+00 -2.29600980E+00
  2.42356590E+00  2.42356590E+00 -2.13200910E+00  2.44178820E+00 -3.09779100E-01
 -2.15023140E+00  2.44178820E+00  2.42356590E+00  2.42356590E+00 -3.28001400E-01
 -2.13200910E+00  2.44178820E+00 -3.46223700E-01 -2.11378680E+00  2.42356590E+00
 -6.56002800E-01 -2.15023140E+00  2.44178820E+00 -2.13200910E+00 -2.31423210E+00
  2.40534360E+00 -2.29600980E+00  2.42356590E+00  2.42356590E+00  2.42356590E+00
 -3.46223700E-01 -2.15023140E+00 -6.56002800E-01 -3.28001400E-01 -2.31423210E+00
  2.40534360E+00 -2.13200910E+00 -2.11378680E+00 -3.09779100E-01 -2.15023140E+00
 -2.29600980E+00  2.42356590E+00  2.42356590E+00 -2.13200910E+00  2.44178820E+00
 -3.09779100E-01 -2.15023140E+00  2.44178820E+00  2.42356590E+00  2.42356590E+00
 -3.28001400E-01 -2.13200910E+00  2.44178820E+00 -3.46223700E-01 -2.11378680E+00
  2.42356590E+00 -6.56002800E-01 -2.15023140E+00  2.44178820E+00 -2.13200910E+00
 -2.31423210E+00  2.40534360E+00 -2.29600980E+00  2.42356590E+00  2.42356590E+00
  2.42356590E+00 -3.46223700E-01 -2.15023140E+00 -6.56002800E-01 -3.28001400E-01
 -2.31423210E+00  2.40534360E+00 -2.13200910E+00 -2.11378680E+00 -3.09779100E-01
 -2.15023140E+00 -2.29600980E+00  2.42356590E+00  2.42356590E+00 -2.13200910E+00
  2.44178820E+00 -3.09779100E-01 -2.15023140E+00  2.44178820E+00  2.42356590E+00
  2.42356590E+00 -3.28001400E-01 -2.13200910E+00  2.44178820E+00 -3.46223700E-01
 -2.11378680E+00  2.42356590E+00 -6.56002800E-01 -2.15023140E+00  2.44178820E+00
 -2.13200910E+00 -2.31423210E+00  2.40534360E+00 -2.29600980E+00  2.42356590E+00
  2.42356590E+00  2.42356590E+00 -3.46223700E-01 -2.15023140E+00 -6.56002800E-01
 -3.28001400E-01 -2.31423210E+00  2.40534360E+00 -2.13200910E+00 -2.11378680E+00
 -3.09779100E-01 -2.15023140E+00 -2.29600980E+00  2.42356590E+00  2.42356590E+00
 -2.13200910E+00  2.44178820E+00 -3.09779100E-01 -2.15023140E+00  2.44178820E+00
  2.42356590E+00  2.42356590E+00 -3.28001400E-01 -2.13200910E+00  2.44178820E+00
 -3.46223700E-01 -2.11378680E+00  2.42356590E+00 -6.56002800E-01 -2.15023140E+00
  2.44178820E+00 -2.13200910E+00 -2.31423210E+00  2.40534360E+00 -2.29600980E+00
  2.42356590E+00  2.42356590E+00  2.42356590E+00 -3.46223700E-01 -2.15023140E+00
 -6.56002800E-01 -3.28001400E-01 -2.31423210E+00  2.40534360E+00 -2.13200910E+00
 -2.11378680E+00 -3.09779100E-01 -2.15023140E+00 -2.29600980E+00  2.42356590E+00
  2.42356590E+00 -2.13200910E+00  2.44178820E+00 -3.09779100E-01 -2.15023140E+00
  2.44178820E+00  2.42356590E+00  2.42356590E+00 -3.28001400E-01 -2.13200910E+00
  2.44178820E+00 -3.46223700E-01 -2.11378680E+00  2.42356590E+00 -6.56002800E-01
 -2.15023140E+00  2.44178820E+00 -2.13200910E+00 -2.31423210E+00  2.40534360E+00
 -2.29600980E+00  2.42356590E+00  2.42356590E+00  2.42356590E+00 -3.46223700E-01
 -2.15023140E+00 -6.56002800E-01 -3.28001400E-01 -2.31423210E+00  2.40534360E+00
 -2.13200910E+00 -2.11378680E+00 -3.09779100E-01 -2.15023140E+00 -2.29600980E+00
  2.42356590E+00  2.42356590E+00 -2.13200910E+00  2.44178820E+00 -3.09779100E-01
 -2.15023140E+00  2.44178820E+00  2.42356590E+00  2.42356590E+00 -3.28001400E-01
 -2.13200910E+00  2.44178820E+00 -3.46223700E-01 -2.11378680E+00  2.42356590E+00
 -6.56002800E-01 -2.15023140E+00  2.44178820E+00 -2.13200910E+00 -2.31423210E+00
  2.40534360E+00 -2.29600980E+00  2.42356590E+00  2.42356590E+00  2.42356590E+00
 -3.46223700E-01 -2.15023140E+00 -6.56002800E-01 -3.28001400E-01 -2.31423210E+00
  2.40534360E+00 -2.13200910E+00 -2.11378680E+00 -3.09779100E-01 -2.15023140E+00
 -2.29600980E+00  2.42356590E+00  2.42356590E+00 -2.13200910E+00  2.44178820E+00
 -3.09779100E-01 -2.15023140E+00  2.44178820E+00  2.42356590E+00  2.42356590E+00
 -3.28001400E-01 -2.13200910E+00  2.44178820E+00 -3.46223700E-01 -2.11378680E+00
  2.42356590E+00 -6.56002800E-01 -2.15023140E+00  2.44178820E+00 -2.13200910E+00
 -2.31423210E+00  2.40534360E+00 -2.29600980E+00  2.42356590E+00  2.42356590E+00
  2.42356590E+00 -3.46223700E-01 -2.15023140E+00 -6.56002800E-01 -3.28001400E-01
 -2.31423210E+00  2.40534360E+00 -2.13200910E+00 -2.11378680E+00 -3.09779100E-01
 -2.15023140E+00 -2.29600980E+00  2.42356590E+00  2.42356590E+00 -2.13200910E+00
  2.44178820E+00 -3.09779100E-01 -2.15023140E+00  2.44178820E+00  2.42356590E+00
  2.42356590E+00 -3.28001400E-01 -2.13200910E+00  2.44178820E+00 -3.46223700E-01
 -2.11378680E+00  2.42356590E+00 -6.56002800E-01 -2.15023140E+00  2.44178820E+00
 -2.13200910E+00 -2.31423210E+00  2.40534360E+00 -2.29600980E+00  2.42356590E+00
  2.42356590E+00  2.42356590E+00 -3.46223700E-01 -2.15023140E+00 -6.56002800E-01
 -3.28001400E-01 -2.31423210E+00  2.40534360E+00 -2.13200910E+00 -2.11378680E+00
 -3.09779100E-01 -2.15023140E+00 -2.29600980E+00  2.42356590E+00  2.42356590E+00
 -2.13200910E+00  2.44178820E+00 -3.09779100E-01 -2.15023140E+00  2.44178820E+00
  2.42356590E+00  2.42356590E+00 -3.28001400E-01 -2.13200910E+00  2.44178820E+00
 -3.46223700E-01 -2.11378680E+00  2.42356590E+00 -6.56002800E-01 -2.15023140E+00
  2.44178820E+00 -2.13200910E+00 -2.31423210E+00  2.40534360E+00 -2.29600980E+00
  2.42356590E+00  2.42356590E+00  2.42356590E+00 -3.46223700E-01 -2.15023140E+00
 -6.56002800E-01 -3.28001400E-01 -2.31423210E+00  2.40534360E+00 -2.13200910E+00
 -2.11378680E+00 -3.09779100E-01 -2.15023140E+00 -2.29600980E+00  2.42356590E+00
  2.42356590E+00 -2.13200910E+00  2.44178820E+00 -3.09779100E-01 -2.15023140E+00
  2.44178820E+00  2.42356590E+00  2.42356590E+00 -3.28001400E-01 -2.13200910E+00
  2.44178820E+00 -3.46223700E-01 -2.11378680E+00  2.42356590E+00 -6.56002800E-01
 -2.15023140E+00  2.44178820E+00 -2.13200910E+00 -2.31423210E+00  2.40534360E+00
 -2.29600980E+00  2.42356590E+00  2.42356590E+00  2.42356590E+00 -3.46223700E-01
 -2.15023140E+00 -6.56002800E-01 -3.28001400E-01 -2.31423210E+00  2.40534360E+00
 -2.13200910E+00 -2.11378680E+00 -3.09779100E-01 -2.15023140E+00 -2.29600980E+00
  2.42356590E+00  2.42356590E+00 -2.13200910E+00  2.44178820E+00 -3.09779100E-01
 -2.15023140E+00  2.44178820E+00  2.42356590E+00  2.42356590E+00 -3.28001400E-01
 -2.13200910E+00  2.44178820E+00 -3.46223700E-01 -2.11378680E+00  2.42356590E+00
 -6.56002800E-01 -2.15023140E+00  2.44178820E+00 -2.13200910E+00 -2.31423210E+00
  2.40534360E+00 -2.29600980E+00  2.42356590E+00  2.42356590E+00  2.42356590E+00
 -3.46223700E-01 -2.15023140E+00 -6.56002800E-01 -3.28001400E-01 -2.31423210E+00
  2.40534360E+00 -2.13200910E+00 -2.11378680E+00 -3.09779100E-01 -2.15023140E+00
 -2.29600980E+00  2.42356590E+00  2.42356590E+00 -2.13200910E+00  2.44178820E+00
 -3.09779100E-01 -2.15023140E+00  2.44178820E+00  2.42356590E+00  2.42356590E+00
 -3.28001400E-01 -2.13200910E+00  2.44178820E+00 -3.46223700E-01 -2.11378680E+00
  2.42356590E+00 -6.56002800E-01 -2.15023140E+00  2.44178820E+00 -2.13200910E+00
 -2.31423210E+00  2.40534360E+00 -2.29600980E+00  2.42356590E+00  2.42356590E+00
  2.42356590E+00 -3.46223700E-01 -2.15023140E+00 -6.56002800E-01 -3.28001400E-01
 -2.31423210E+00  2.40534360E+00 -2.13200910E+00 -2.11378680E+00 -3.09779100E-01
 -2.15023140E+00 -2.29600980E+00  2.42356590E+00  2.42356590E+00 -2.13200910E+00
  2.44178820E+00 -3.09779100E-01 -2.15023140E+00  2.44178820E+00  2.42356590E+00
  2.42356590E+00 -3.28001400E-01 -2.13200910E+00  2.44178820E+00 -3.46223700E-01
 -2.11378680E+00  2.42356590E+00 -6.56002800E-01 -2.15023140E+00  2.44178820E+00
 -2.13200910E+00 -2.31423210E+00  2.40534360E+00 -2.29600980E+00  2.42356590E+00
  2.42356590E+00  2.42356590E+00 -3.46223700E-01 -2.15023140E+00 -6.56002800E-01
 -3.28001400E-01 -2.31423210E+00  2.40534360E+00 -2.13200910E+00 -2.11378680E+00
 -3.09779100E-01 -2.15023140E+00 -2.29600980E+00  2.42356590E+00  2.42356590E+00
 -2.13200910E+00  2.44178820E+00 -3.09779100E-01 -2.15023140E+00  2.44178820E+00
  2.42356590E+00  2.42356590E+00 -3.28001400E-01 -2.13200910E+00  2.44178820E+00
 -3.46223700E-01 -2.11378680E+00  2.42356590E+00 -6.56002800E-01 -2.15023140E+00
  2.44178820E+00 -2.13200910E+00 -2.31423210E+00  2.40534360E+00 -2.29600980E+00
  2.42356590E+00  2.42356590E+00  2.42356590E+00 -3.46223700E-01 -2.15023140E+00
 -6.56002800E-01 -3.28001400E-01 -2.31423210E+00  2.40534360E+00 -2.13200910E+00
 -2.11378680E+00 -3.09779100E-01 -2.15023140E+00 -2.29600980E+00  2.42356590E+00
  2.42356590E+00 -2.13200910E+00  2.44178820E+00 -3.09779100E-01 -2.15023140E+00
  2.44178820E+00  2.42356590E+00  2.42356590E+00 -3.28001400E-01 -2.13200910E+00
  2.44178820E+00 -3.46223700E-01 -2.11378680E+00  2.42356590E+00 -6.56002800E-01
 -2.15023140E+00  2.44178820E+00 -2.13200910E+00 -2.31423210E+00  2.40534360E+00
 -2.29600980E+00  2.42356590E+00  2.42356590E+00  2.42356590E+00 -3.46223700E-01
 -2.15023140E+00 -6.56002800E-01 -3.28001400E-01 -2.31423210E+00  2.40534360E+00
 -2.13200910E+00 -2.11378680E+00 -3.09779100E-01 -2.15023140E+00 -2.29600980E+00
  2.42356590E+00  2.42356590E+00 -2.13200910E+00  2.44178820E+00 -3.09779100E-01
 -2.15023140E+00  2.44178820E+00  2.42356590E+00  2.42356590E+00 -3.28001400E-01
 -2.13200910E+00  2.44178820E+00 -3.46223700E-01 -2.11378680E+00  2.42356590E+00
 -6.56002800E-01 -2.15023140E+00  2.44178820E+00 -2.13200910E+00 -2.31423210E+00
  2.40534360E+00 -2.29600980E+00  2.42356590E+00  2.42356590E+00  2.42356590E+00
 -3.46223700E-01 -2.15023140E+00 -6.56002800E-01 -3.28001400E-01 -2.31423210E+00
  2.40534360E+00 -2.13200910E+00 -2.11378680E+00 -3.09779100E-01 -2.15023140E+00
 -2.29600980E+00  2.42356590E+00  2.42356590E+00 -2.13200910E+00  2.44178820E+00
 -3.09779100E-01 -2.15023140E+00  2.44178820E+00  2.42356590E+00  2.42356590E+00
 -3.28001400E-01 -2.13200910E+00  2.44178820E+00 -3.46223700E-01 -2.11378680E+00
  2.42356590E+00 -6.56002800E-01 -2.15023140E+00  2.44178820E+00 -2.13200910E+00
 -2.31423210E+00  2.40534360E+00 -2.29600980E+00  2.42356590E+00  2.42356590E+00
  2.42356590E+00 -3.46223700E-01 -2.15023140E+00 -6.56002800E-01 -3.28001400E-01
 -2.31423210E+00  2.40534360E+00 -2.13200910E+00 -2.11378680E+00 -3.09779100E-01
 -2.15023140E+00 -2.29600980E+00  2.42356590E+00  2.42356590E+00 -2.13200910E+00
  2.44178820E+00 -3.09779100E-01 -2.15023140E+00  2.44178820E+00  2.42356590E+00
  2.42356590E+00 -3.28001400E-01 -2.13200910E+00  2.44178820E+00 -3.46223700E-01
 -2.11378680E+00  2.42356590E+00 -6.56002800E-01 -2.15023140E+00  2.44178820E+00
 -2.13200910E+00 -2.31423210E+00  2.40534360E+00 -2.29600980E+00  2.42356590E+00
  2.42356590E+00  2.42356590E+00 -3.46223700E-01 -2.15023140E+00 -6.56002800E-01
 -3.28001400E-01 -2.31423210E+00  2.40534360E+00 -2.13200910E+00 -2.11378680E+00
 -3.09779100E-01 -2.15023140E+00 -2.29600980E+00  2.42356590E+00  2.42356590E+00
 -2.13200910E+00  2.44178820E+00 -3.09779100E-01 -2.15023140E+00  2.44178820E+00
  2.42356590E+00  2.42356590E+00 -3.28001400E-01 -2.13200910E+00  2.44178820E+00
 -3.46223700E-01 -2.11378680E+00  2.42356590E+00 -6.56002800E-01 -2.15023140E+00
  2.44178820E+00 -2.13200910E+00 -2.31423210E+00  2.40534360E+00 -2.29600980E+00
  2.42356590E+00  2.42356590E+00  2.42356590E+00 -3.46223700E-01 -2.15023140E+00
 -6.56002800E-01 -3.28001400E-01 -2.31423210E+00  2.40534360E+00 -2.13200910E+00
 -2.11378680E+00 -3.09779100E-01 -2.15023140E+00 -2.29600980E+00  2.42356590E+00
  2.42356590E+00 -2.13200910E+00  2.44178820E+00 -3.09779100E-01 -2.15023140E+00
  2.44178820E+00  2.42356590E+00  2.42356590E+00 -3.28001400E-01 -2.13200910E+00
  2.44178820E+00 -3.46223700E-01 -2.11378680E+00  2.42356590E+00 -6.56002800E-01
 -2.15023140E+00  2.44178820E+00 -2.13200910E+00 -2.31423210E+00  2.40534360E+00
 -2.29600980E+00  2.42356590E+00  2.42356590E+00  2.42356590E+00 -3.46223700E-01
 -2.15023140E+00 -6.56002800E-01 -3.28001400E-01 -2.31423210E+00  2.40534360E+00
 -2.13200910E+00 -2.11378680E+00 -3.09779100E-01 -2.15023140E+00 -2.29600980E+00
  2.42356590E+00  2.42356590E+00 -2.13200910E+00  2.44178820E+00 -3.09779100E-01
 -2.15023140E+00  2.44178820E+00  2.42356590E+00  2.42356590E+00 -3.28001400E-01
 -2.13200910E+00  2.44178820E+00 -3.46223700E-01 -2.11378680E+00  2.42356590E+00
 -6.56002800E-01 -2.15023140E+00  2.44178820E+00 -2.13200910E+00 -2.31423210E+00
  2.40534360E+00 -2.29600980E+00  2.42356590E+00  2.42356590E+00  2.42356590E+00
 -3.46223700E-01 -2.15023140E+00 -6.56002800E-01 -3.28001400E-01 -2.31423210E+00
  2.40534360E+00 -2.13200910E+00 -2.11378680E+00 -3.09779100E-01 -2.15023140E+00
 -2.29600980E+00  2.42356590E+00  2.42356590E+00 -2.13200910E+00  2.44178820E+00
 -3.09779100E-01 -2.15023140E+00  2.44178820E+00  2.42356590E+00  2.42356590E+00
 -3.28001400E-01 -2.13200910E+00  2.44178820E+00 -3.46223700E-01 -2.11378680E+00
  2.42356590E+00 -6.56002800E-01 -2.15023140E+00  2.44178820E+00 -2.13200910E+00
 -2.31423210E+00  2.40534360E+00 -2.29600980E+00  2.42356590E+00  2.42356590E+00
  2.42356590E+00 -3.46223700E-01 -2.15023140E+00 -6.56002800E-01 -3.28001400E-01
 -2.31423210E+00  2.40534360E+00 -2.13200910E+00 -2.11378680E+00 -3.09779100E-01
 -2.15023140E+00 -2.29600980E+00  2.42356590E+00  2.42356590E+00 -2.13200910E+00
  2.44178820E+00 -3.09779100E-01 -2.15023140E+00  2.44178820E+00  2.42356590E+00
  2.42356590E+00 -3.28001400E-01 -2.13200910E+00  2.44178820E+00 -3.46223700E-01
 -2.11378680E+00  2.42356590E+00 -6.56002800E-01 -2.15023140E+00  2.44178820E+00
 -2.13200910E+00 -2.31423210E+00  2.40534360E+00 -2.29600980E+00  2.42356590E+00
  2.42356590E+00  2.42356590E+00 -3.46223700E-01 -2.15023140E+00 -6.56002800E-01
 -3.28001400E-01 -2.31423210E+00  2.40534360E+00 -2.13200910E+00 -2.11378680E+00
 -3.09779100E-01 -2.15023140E+00 -2.29600980E+00  2.42356590E+00  2.42356590E+00
 -2.13200910E+00  2.44178820E+00 -3.09779100E-01 -2.15023140E+00  2.44178820E+00
  2.42356590E+00  2.42356590E+00 -3.28001400E-01 -2.13200910E+00  2.44178820E+00
 -3.46223700E-01 -2.11378680E+00  2.42356590E+00 -6.56002800E-01 -2.15023140E+00
  2.44178820E+00 -2.13200910E+00 -2.31423210E+00  2.40534360E+00 -2.29600980E+00
  2.42356590E+00  2.42356590E+00  2.42356590E+00 -3.46223700E-01 -2.15023140E+00
 -6.56002800E-01 -3.28001400E-01 -2.31423210E+00  2.40534360E+00 -2.13200910E+00
 -2.11378680E+00 -3.09779100E-01 -2.15023140E+00 -2.29600980E+00  2.42356590E+00
  2.42356590E+00 -2.13200910E+00  2.44178820E+00 -3.09779100E-01 -2.15023140E+00
  2.44178820E+00  2.42356590E+00  2.42356590E+00 -3.28001400E-01 -2.13200910E+00
  2.44178820E+00 -3.46223700E-01 -2.11378680E+00  2.42356590E+00 -6.56002800E-01
 -2.15023140E+00  2.44178820E+00 -2.13200910E+00 -2.31423210E+00  2.40534360E+00
 -2.29600980E+00  2.42356590E+00  2.42356590E+00  2.42356590E+00 -3.46223700E-01
 -2.15023140E+00 -6.56002800E-01 -3.28001400E-01 -2.31423210E+00  2.40534360E+00
 -2.13200910E+00 -2.11378680E+00 -3.09779100E-01 -2.15023140E+00 -2.29600980E+00
  2.42356590E+00  2.42356590E+00 -2.13200910E+00  2.44178820E+00 -3.09779100E-01
 -2.15023140E+00  2.44178820E+00  2.42356590E+00  2.42356590E+00 -3.28001400E-01
 -2.13200910E+00  2.44178820E+00 -3.46223700E-01 -2.11378680E+00  2.42356590E+00
 -6.56002800E-01 -2.15023140E+00  2.44178820E+00 -2.13200910E+00 -2.31423210E+00
  2.40534360E+00 -2.29600980E+00  2.42356590E+00  2.42356590E+00  2.42356590E+00
 -3.46223700E-01 -2.15023140E+00 -6.56002800E-01 -3.28001400E-01 -2.31423210E+00
  2.40534360E+00 -2.13200910E+00 -2.11378680E+00 -3.09779100E-01 -2.15023140E+00
 -2.29600980E+00  2.42356590E+00  2.42356590E+00 -2.13200910E+00  2.44178820E+00
 -3.09779100E-01 -2.15023140E+00  2.44178820E+00  2.42356590E+00  2.42356590E+00
 -3.28001400E-01 -2.13200910E+00  2.44178820E+00 -3.46223700E-01 -2.11378680E+00
  2.42356590E+00 -6.56002800E-01 -2.15023140E+00  2.44178820E+00 -2.13200910E+00
 -2.31423210E+00  2.40534360E+00 -2.29600980E+00  2.42356590E+00  2.42356590E+00
  2.42356590E+00 -3.46223700E-01 -2.15023140E+00 -6.56002800E-01 -3.28001400E-01
 -2.31423210E+00  2.40534360E+00 -2.13200910E+00 -2.11378680E+00 -3.09779100E-01
 -2.15023140E+00 -2.29600980E+00  2.42356590E+00  2.42356590E+00 -2.13200910E+00
  2.44178820E+00 -3.09779100E-01 -2.15023140E+00  2.44178820E+00  2.42356590E+00
  2.42356590E+00 -3.28001400E-01 -2.13200910E+00  2.44178820E+00 -3.46223700E-01
 -2.11378680E+00  2.42356590E+00 -6.56002800E-01 -2.15023140E+00  2.44178820E+00
 -2.13200910E+00 -2.31423210E+00  2.40534360E+00 -2.29600980E+00  2.42356590E+00
  2.42356590E+00  2.42356590E+00 -3.46223700E-01 -2.15023140E+00 -6.56002800E-01
 -3.28001400E-01 -2.31423210E+00  2.40534360E+00 -2.13200910E+00 -2.11378680E+00
 -3.09779100E-01 -2.15023140E+00 -2.29600980E+00  2.42356590E+00  2.42356590E+00
 -2.13200910E+00  2.44178820E+00 -3.09779100E-01 -2.15023140E+00  2.44178820E+00
  2.42356590E+00  2.42356590E+00 -3.28001400E-01 -2.13200910E+00  2.44178820E+00
 -3.46223700E-01 -2.11378680E+00  2.42356590E+00 -6.56002800E-01 -2.15023140E+00
  2.44178820E+00 -2.13200910E+00 -2.31423210E+00  2.40534360E+00 -2.29600980E+00
  2.42356590E+00  2.42356590E+00  2.42356590E+00 -3.46223700E-01 -2.15023140E+00
 -6.56002800E-01 -3.28001400E-01 -2.31423210E+00  2.40534360E+00 -2.13200910E+00
 -2.11378680E+00 -3.09779100E-01 -2.15023140E+00 -2.29600980E+00  2.42356590E+00
  2.42356590E+00 -2.13200910E+00  2.44178820E+00 -3.09779100E-01 -2.15023140E+00
  2.44178820E+00  2.42356590E+00  2.42356590E+00 -3.28001400E-01 -2.13200910E+00
  2.44178820E+00 -3.46223700E-01 -2.11378680E+00  2.42356590E+00 -6.56002800E-01
 -2.15023140E+00  2.44178820E+00 -2.13200910E+00 -2.31423210E+00  2.40534360E+00
 -2.29600980E+00  2.42356590E+00  2.42356590E+00  2.42356590E+00 -3.46223700E-01
 -2.15023140E+00 -6.56002800E-01 -3.28001400E-01 -2.31423210E+00  2.40534360E+00
 -2.13200910E+00 -2.11378680E+00 -3.09779100E-01 -2.15023140E+00 -2.29600980E+00
  2.42356590E+00  2.42356590E+00 -2.13200910E+00  2.44178820E+00 -3.09779100E-01
 -2.15023140E+00  2.44178820E+00  2.42356590E+00  2.42356590E+00 -3.28001400E-01
 -2.13200910E+00  2.44178820E+00 -3.46223700E-01 -2.11378680E+00  2.42356590E+00
 -6.56002800E-01 -2.15023140E+00  2.44178820E+00 -2.13200910E+00 -2.31423210E+00
  2.40534360E+00 -2.29600980E+00  2.42356590E+00  2.42356590E+00  2.42356590E+00
 -3.46223700E-01 -2.15023140E+00 -6.56002800E-01 -3.28001400E-01 -2.31423210E+00
  2.40534360E+00 -2.13200910E+00 -2.11378680E+00 -3.09779100E-01 -2.15023140E+00
 -2.29600980E+00  2.42356590E+00  2.42356590E+00 -2.13200910E+00  2.44178820E+00
 -3.09779100E-01 -2.15023140E+00  2.44178820E+00  2.42356590E+00  2.42356590E+00
 -3.28001400E-01 -2.13200910E+00  2.44178820E+00 -3.46223700E-01 -2.11378680E+00
  2.42356590E+00 -6.56002800E-01 -2.15023140E+00  2.44178820E+00 -2.13200910E+00
 -2.31423210E+00  2.40534360E+00 -2.29600980E+00  2.42356590E+00  2.42356590E+00
  2.42356590E+00 -3.46223700E-01 -2.15023140E+00 -6.56002800E-01 -3.28001400E-01
 -2.31423210E+00  2.40534360E+00 -2.13200910E+00 -2.11378680E+00 -3.09779100E-01
 -2.15023140E+00 -2.29600980E+00  2.42356590E+00  2.42356590E+00 -2.13200910E+00
  2.44178820E+00 -3.09779100E-01 -2.15023140E+00  2.44178820E+00  2.42356590E+00
  2.42356590E+00 -3.28001400E-01 -2.13200910E+00  2.44178820E+00 -3.46223700E-01
 -2.11378680E+00  2.42356590E+00 -6.56002800E-01 -2.15023140E+00  2.44178820E+00
 -2.13200910E+00 -2.31423210E+00  2.40534360E+00 -2.29600980E+00  2.42356590E+00
  2.42356590E+00  2.42356590E+00 -3.46223700E-01 -2.15023140E+00 -6.56002800E-01
 -3.28001400E-01 -2.31423210E+00  2.40534360E+00 -2.13200910E+00 -2.11378680E+00
 -3.09779100E-01 -2.15023140E+00 -2.29600980E+00  2.42356590E+00  2.42356590E+00
 -2.13200910E+00  2.44178820E+00 -3.09779100E-01 -2.15023140E+00  2.44178820E+00
  2.42356590E+00  2.42356590E+00 -3.28001400E-01 -2.13200910E+00  2.44178820E+00
 -3.46223700E-01 -2.11378680E+00  2.42356590E+00 -6.56002800E-01 -2.15023140E+00
  2.44178820E+00 -2.13200910E+00 -2.31423210E+00  2.40534360E+00 -2.29600980E+00
  2.42356590E+00  2.42356590E+00  2.42356590E+00 -3.46223700E-01 -2.15023140E+00
 -6.56002800E-01 -3.28001400E-01 -2.31423210E+00  2.40534360E+00 -2.13200910E+00
 -2.11378680E+00 -3.09779100E-01 -2.15023140E+00 -2.29600980E+00  2.42356590E+00
  2.42356590E+00 -2.13200910E+00  2.44178820E+00 -3.09779100E-01 -2.15023140E+00
  2.44178820E+00  2.42356590E+00  2.42356590E+00 -3.28001400E-01 -2.13200910E+00
  2.44178820E+00 -3.46223700E-01 -2.11378680E+00  2.42356590E+00 -6.56002800E-01
 -2.15023140E+00  2.44178820E+00 -2.13200910E+00 -2.31423210E+00  2.40534360E+00
 -2.29600980E+00  2.42356590E+00  2.42356590E+00  2.42356590E+00 -3.46223700E-01
 -2.15023140E+00 -6.56002800E-01 -3.28001400E-01 -2.31423210E+00  2.40534360E+00
 -2.13200910E+00 -2.11378680E+00 -3.09779100E-01 -2.15023140E+00 -2.29600980E+00
  2.42356590E+00  2.42356590E+00 -2.13200910E+00  2.44178820E+00 -3.09779100E-01
 -2.15023140E+00  2.44178820E+00  2.42356590E+00  2.42356590E+00 -3.28001400E-01
 -2.13200910E+00  2.44178820E+00 -3.46223700E-01 -2.11378680E+00  2.42356590E+00
 -6.56002800E-01 -2.15023140E+00  2.44178820E+00 -2.13200910E+00 -2.31423210E+00
  2.40534360E+00 -2.29600980E+00  2.42356590E+00  2.42356590E+00  2.42356590E+00
 -3.46223700E-01 -2.15023140E+00 -6.56002800E-01 -3.28001400E-01 -2.31423210E+00
  2.40534360E+00 -2.13200910E+00 -2.11378680E+00 -3.09779100E-01 -2.15023140E+00
 -2.29600980E+00  2.42356590E+00  2.42356590E+00 -2.13200910E+00  2.44178820E+00
 -3.09779100E-01 -2.15023140E+00  2.44178820E+00  2.42356590E+00  2.42356590E+00
 -3.28001400E-01 -2.13200910E+00  2.44178820E+00 -3.46223700E-01 -2.11378680E+00
  2.42356590E+00 -6.56002800E-01 -2.15023140E+00  2.44178820E+00 -2.13200910E+00
 -2.31423210E+00  2.40534360E+00 -2.29600980E+00  2.42356590E+00  2.42356590E+00
  2.42356590E+00 -3.46223700E-01 -2.15023140E+00 -6.56002800E-01 -3.28001400E-01
 -2.31423210E+00  2.40534360E+00 -2.13200910E+00 -2.11378680E+00 -3.09779100E-01
 -2.15023140E+00 -2.29600980E+00  2.42356590E+00  2.42356590E+00 -2.13200910E+00
  2.44178820E+00 -3.09779100E-01 -2.15023140E+00  2.44178820E+00  2.42356590E+00
  2.42356590E+00 -3.28001400E-01 -2.13200910E+00  2.44178820E+00 -3.46223700E-01
 -2.11378680E+00  2.42356590E+00 -6.56002800E-01 -2.15023140E+00  2.44178820E+00
 -2.13200910E+00 -2.31423210E+00  2.40534360E+00 -2.29600980E+00  2.42356590E+00
  2.42356590E+00  2.42356590E+00 -3.46223700E-01 -2.15023140E+00 -6.56002800E-01
 -3.28001400E-01 -2.31423210E+00  2.40534360E+00 -2.13200910E+00 -2.11378680E+00
 -3.09779100E-01 -2.15023140E+00 -2.29600980E+00  2.42356590E+00  2.42356590E+00
 -2.13200910E+00  2.44178820E+00 -3.09779100E-01 -2.15023140E+00  2.44178820E+00
  2.42356590E+00  2.42356590E+00 -3.28001400E-01 -2.13200910E+00  2.44178820E+00
 -3.46223700E-01 -2.11378680E+00  2.42356590E+00 -6.56002800E-01 -2.15023140E+00
  2.44178820E+00 -2.13200910E+00 -2.31423210E+00  2.40534360E+00 -2.29600980E+00
  2.42356590E+00  2.42356590E+00  2.42356590E+00 -3.46223700E-01 -2.15023140E+00
 -6.56002800E-01 -3.28001400E-01 -2.31423210E+00  2.40534360E+00 -2.13200910E+00
 -2.11378680E+00 -3.09779100E-01 -2.15023140E+00 -2.29600980E+00  2.42356590E+00
  2.42356590E+00 -2.13200910E+00  2.44178820E+00 -3.09779100E-01 -2.15023140E+00
  2.44178820E+00  2.42356590E+00  2.42356590E+00 -3.28001400E-01 -2.13200910E+00
  2.44178820E+00 -3.46223700E-01 -2.11378680E+00  2.42356590E+00 -6.56002800E-01
 -2.15023140E+00  2.44178820E+00 -2.13200910E+00 -2.31423210E+00  2.40534360E+00
 -2.29600980E+00  2.42356590E+00  2.42356590E+00  2.42356590E+00 -3.46223700E-01
 -2.15023140E+00 -6.56002800E-01 -3.28001400E-01 -2.31423210E+00  2.40534360E+00
 -2.13200910E+00 -2.11378680E+00 -3.09779100E-01 -2.15023140E+00 -2.29600980E+00
  2.42356590E+00  2.42356590E+00 -2.13200910E+00  2.44178820E+00 -3.09779100E-01
 -2.15023140E+00  2.44178820E+00  2.42356590E+00  2.42356590E+00 -3.28001400E-01
 -2.13200910E+00  2.44178820E+00 -3.46223700E-01 -2.11378680E+00  2.42356590E+00
 -6.56002800E-01 -2.15023140E+00  2.44178820E+00 -2.13200910E+00 -2.31423210E+00
  2.40534360E+00 -2.29600980E+00  2.42356590E+00  2.42356590E+00  2.42356590E+00
 -3.46223700E-01 -2.15023140E+00 -6.56002800E-01 -3.28001400E-01 -2.31423210E+00
  2.40534360E+00 -2.13200910E+00 -2.11378680E+00 -3.09779100E-01 -2.15023140E+00
 -2.29600980E+00  2.42356590E+00  2.42356590E+00 -2.13200910E+00  2.44178820E+00
 -3.09779100E-01 -2.15023140E+00  2.44178820E+00  2.42356590E+00  2.42356590E+00
 -3.28001400E-01 -2.13200910E+00  2.44178820E+00 -3.46223700E-01 -2.11378680E+00
  2.42356590E+00 -6.56002800E-01 -2.15023140E+00  2.44178820E+00 -2.13200910E+00
 -2.31423210E+00  2.40534360E+00 -2.29600980E+00  2.42356590E+00  2.42356590E+00
  2.42356590E+00 -3.46223700E-01 -2.15023140E+00 -6.56002800E-01 -3.28001400E-01
 -2.31423210E+00  2.40534360E+00 -2.13200910E+00 -2.11378680E+00 -3.09779100E-01
 -2.15023140E+00 -2.29600980E+00  2.42356590E+00  2.42356590E+00 -2.13200910E+00
  2.44178820E+00 -3.09779100E-01 -2.15023140E+00  2.44178820E+00  2.42356590E+00
  2.42356590E+00 -3.28001400E-01 -2.13200910E+00  2.44178820E+00 -3.46223700E-01
 -2.11378680E+00  2.42356590E+00 -6.56002800E-01 -2.15023140E+00  2.44178820E+00
 -2.13200910E+00 -2.31423210E+00  2.40534360E+00 -2.29600980E+00  2.42356590E+00
  2.42356590E+00  2.42356590E+00 -3.46223700E-01 -2.15023140E+00 -6.56002800E-01
 -3.28001400E-01 -2.31423210E+00  2.40534360E+00 -2.13200910E+00 -2.11378680E+00
 -3.09779100E-01 -2.15023140E+00 -2.29600980E+00  2.42356590E+00  2.42356590E+00
 -2.13200910E+00  2.44178820E+00 -3.09779100E-01 -2.15023140E+00  2.44178820E+00
  2.42356590E+00  2.42356590E+00 -3.28001400E-01 -2.13200910E+00  2.44178820E+00
 -3.46223700E-01 -2.11378680E+00  2.42356590E+00 -6.56002800E-01 -2.15023140E+00
  2.44178820E+00 -2.13200910E+00 -2.31423210E+00  2.40534360E+00 -2.29600980E+00
  2.42356590E+00  2.42356590E+00  2.42356590E+00 -3.46223700E-01 -2.15023140E+00
 -6.56002800E-01 -3.28001400E-01 -2.31423210E+00  2.40534360E+00 -2.13200910E+00
 -2.11378680E+00 -3.09779100E-01 -2.15023140E+00 -2.29600980E+00  2.42356590E+00
  2.42356590E+00 -2.13200910E+00  2.44178820E+00 -3.09779100E-01 -2.15023140E+00
  2.44178820E+00  2.42356590E+00  2.42356590E+00 -3.28001400E-01 -2.13200910E+00
  2.44178820E+00 -3.46223700E-01 -2.11378680E+00  2.42356590E+00 -6.56002800E-01
 -2.15023140E+00  2.44178820E+00 -2.13200910E+00 -2.31423210E+00  2.40534360E+00
 -2.29600980E+00  2.42356590E+00  2.42356590E+00  2.42356590E+00 -3.46223700E-01
 -2.15023140E+00 -6.56002800E-01 -3.28001400E-01 -2.31423210E+00  2.40534360E+00
 -2.13200910E+00 -2.11378680E+00 -3.09779100E-01 -2.15023140E+00 -2.29600980E+00
  2.42356590E+00  2.42356590E+00 -2.13200910E+00  2.44178820E+00 -3.09779100E-01
 -2.15023140E+00  2.44178820E+00  2.42356590E+00  2.42356590E+00 -3.28001400E-01
 -2.13200910E+00  2.44178820E+00 -3.46223700E-01 -2.11378680E+00  2.42356590E+00
 -6.56002800E-01 -2.15023140E+00  2.44178820E+00 -2.13200910E+00 -2.31423210E+00
  2.40534360E+00 -2.29600980E+00  2.42356590E+00  2.42356590E+00  2.42356590E+00
 -3.46223700E-01 -2.15023140E+00 -6.56002800E-01 -3.28001400E-01 -2.31423210E+00
  2.40534360E+00 -2.13200910E+00 -2.11378680E+00 -3.09779100E-01 -2.15023140E+00
 -2.29600980E+00  2.42356590E+00  2.42356590E+00 -2.13200910E+00  2.44178820E+00
 -3.09779100E-01 -2.15023140E+00  2.44178820E+00  2.42356590E+00  2.42356590E+00
 -3.28001400E-01 -2.13200910E+00  2.44178820E+00 -3.46223700E-01 -2.11378680E+00
  2.42356590E+00 -6.56002800E-01 -2.15023140E+00  2.44178820E+00 -2.13200910E+00
 -2.31423210E+00  2.40534360E+00 -2.29600980E+00  2.42356590E+00  2.42356590E+00
  2.42356590E+00 -3.46223700E-01 -2.15023140E+00 -6.56002800E-01 -3.28001400E-01
 -2.31423210E+00  2.40534360E+00 -2.13200910E+00 -2.11378680E+00 -3.09779100E-01
 -2.15023140E+00 -2.29600980E+00  2.42356590E+00  2.42356590E+00 -2.13200910E+00
  2.44178820E+00 -3.09779100E-01 -2.15023140E+00  2.44178820E+00  2.42356590E+00
  2.42356590E+00 -3.28001400E-01 -2.13200910E+00  2.44178820E+00 -3.46223700E-01
 -2.11378680E+00  2.42356590E+00 -6.56002800E-01 -2.15023140E+00  2.44178820E+00
 -2.13200910E+00 -2.31423210E+00  2.40534360E+00 -2.29600980E+00  2.42356590E+00
  2.42356590E+00  2.42356590E+00 -3.46223700E-01 -2.15023140E+00 -6.56002800E-01
 -3.28001400E-01 -2.31423210E+00  2.40534360E+00 -2.13200910E+00 -2.11378680E+00
 -3.09779100E-01 -2.15023140E+00 -2.29600980E+00  2.42356590E+00  2.42356590E+00
 -2.13200910E+00  2.44178820E+00 -3.09779100E-01 -2.15023140E+00  2.44178820E+00
  2.42356590E+00  2.42356590E+00 -3.28001400E-01 -2.13200910E+00  2.44178820E+00
 -3.46223700E-01 -2.11378680E+00  2.42356590E+00 -6.56002800E-01 -2.15023140E+00
  2.44178820E+00 -2.13200910E+00 -2.31423210E+00  2.40534360E+00 -2.29600980E+00
  2.42356590E+00  2.42356590E+00  2.42356590E+00 -3.46223700E-01 -2.15023140E+00
 -6.56002800E-01 -3.28001400E-01 -2.31423210E+00  2.40534360E+00 -2.13200910E+00
 -2.11378680E+00 -3.09779100E-01 -2.15023140E+00 -2.29600980E+00  2.42356590E+00
  2.42356590E+00 -2.13200910E+00  2.44178820E+00 -3.09779100E-01 -2.15023140E+00
  2.44178820E+00  2.42356590E+00  2.42356590E+00 -3.28001400E-01 -2.13200910E+00
  2.44178820E+00 -3.46223700E-01 -2.11378680E+00  2.42356590E+00 -6.56002800E-01
 -2.15023140E+00  2.44178820E+00 -2.13200910E+00 -2.31423210E+00  2.40534360E+00
 -2.29600980E+00  2.42356590E+00  2.42356590E+00  2.42356590E+00 -3.46223700E-01
 -2.15023140E+00 -6.56002800E-01 -3.28001400E-01 -2.31423210E+00  2.40534360E+00
 -2.13200910E+00 -2.11378680E+00 -3.09779100E-01 -2.15023140E+00 -2.29600980E+00
  2.42356590E+00  2.42356590E+00 -2.13200910E+00  2.44178820E+00 -3.09779100E-01
 -2.15023140E+00  2.44178820E+00  2.42356590E+00  2.42356590E+00 -3.28001400E-01
 -2.13200910E+00  2.44178820E+00 -3.46223700E-01 -2.11378680E+00  2.42356590E+00
 -6.56002800E-01 -2.15023140E+00  2.44178820E+00 -2.13200910E+00 -2.31423210E+00
  2.40534360E+00 -2.29600980E+00  2.42356590E+00  2.42356590E+00  2.42356590E+00
 -3.46223700E-01 -2.15023140E+00 -6.56002800E-01 -3.28001400E-01 -2.31423210E+00
  2.40534360E+00 -2.13200910E+00 -2.11378680E+00 -3.09779100E-01 -2.15023140E+00
 -2.29600980E+00  2.42356590E+00  2.42356590E+00 -2.13200910E+00  2.44178820E+00
 -3.09779100E-01 -2.15023140E+00  2.44178820E+00  2.42356590E+00  2.42356590E+00
 -3.28001400E-01 -2.13200910E+00  2.44178820E+00 -3.46223700E-01 -2.11378680E+00
  2.42356590E+00 -6.56002800E-01 -2.15023140E+00  2.44178820E+00 -2.13200910E+00
 -2.31423210E+00  2.40534360E+00 -2.29600980E+00  2.42356590E+00  2.42356590E+00
  2.42356590E+00 -3.46223700E-01 -2.15023140E+00 -6.56002800E-01 -3.28001400E-01
 -2.31423210E+00  2.40534360E+00 -2.13200910E+00 -2.11378680E+00 -3.09779100E-01
 -2.15023140E+00 -2.29600980E+00  2.42356590E+00  2.42356590E+00 -2.13200910E+00
  2.44178820E+00 -3.09779100E-01 -2.15023140E+00  2.44178820E+00  2.42356590E+00
  2.42356590E+00 -3.28001400E-01 -2.13200910E+00  2.44178820E+00 -3.46223700E-01
 -2.11378680E+00  2.42356590E+00 -6.56002800E-01 -2.15023140E+00  2.44178820E+00
 -2.13200910E+00 -2.31423210E+00  2.40534360E+00 -2.29600980E+00  2.42356590E+00
  2.42356590E+00  2.42356590E+00 -3.46223700E-01 -2.15023140E+00 -6.56002800E-01
 -3.28001400E-01 -2.31423210E+00  2.40534360E+00 -2.13200910E+00 -2.11378680E+00
 -3.09779100E-01 -2.15023140E+00 -2.29600980E+00  2.42356590E+00  2.42356590E+00
 -2.13200910E+00  2.44178820E+00 -3.09779100E-01 -2.15023140E+00  2.44178820E+00
  2.42356590E+00  2.42356590E+00 -3.28001400E-01 -2.13200910E+00  2.44178820E+00
 -3.46223700E-01 -2.11378680E+00  2.42356590E+00 -6.56002800E-01 -2.15023140E+00
  2.44178820E+00 -2.13200910E+00 -2.31423210E+00  2.40534360E+00 -2.29600980E+00
  2.42356590E+00  2.42356590E+00  2.42356590E+00 -3.46223700E-01 -2.15023140E+00
 -6.56002800E-01 -3.28001400E-01 -2.31423210E+00  2.40534360E+00 -2.13200910E+00
 -2.11378680E+00 -3.09779100E-01 -2.15023140E+00 -2.29600980E+00  2.42356590E+00
  2.42356590E+00 -2.13200910E+00  2.44178820E+00 -3.09779100E-01 -2.15023140E+00
  2.44178820E+00  2.42356590E+00  2.42356590E+00 -3.28001400E-01 -2.13200910E+00
  2.44178820E+00 -3.46223700E-01 -2.11378680E+00  2.42356590E+00 -6.56002800E-01
 -2.15023140E+00  2.44178820E+00 -2.13200910E+00 -2.31423210E+00  2.40534360E+00
 -2.29600980E+00  2.42356590E+00  2.42356590E+00  2.42356590E+00 -3.46223700E-01
 -2.15023140E+00 -6.56002800E-01 -3.28001400E-01 -2.31423210E+00  2.40534360E+00
 -2.13200910E+00 -2.11378680E+00 -3.09779100E-01 -2.15023140E+00 -2.29600980E+00
  2.42356590E+00  2.42356590E+00 -2.13200910E+00  2.44178820E+00 -3.09779100E-01
 -2.15023140E+00  2.44178820E+00  2.42356590E+00  2.42356590E+00 -3.28001400E-01
 -2.13200910E+00  2.44178820E+00 -3.46223700E-01 -2.11378680E+00  2.42356590E+00
 -6.56002800E-01 -2.15023140E+00  2.44178820E+00 -2.13200910E+00 -2.31423210E+00
  2.40534360E+00 -2.29600980E+00  2.42356590E+00  2.42356590E+00  2.42356590E+00
%FLAG ATOMIC_NUMBER
%FORMAT(10I8)
       6       6       6       6       6       1       6       6       6       6
       6       1       1       6       1       6       6       1       1       1
       6       6       1       6       6       1       6       6       1       6
       6       1       6       1       1       1       6       6       6       6
       6       1       6       6       6       6       6       1       1       6
       1       6       6       1       1       1       6       6       1       6
       6       1       6       6       1       6       6       1       6       1
       1       1       6       6       6       6       6       1       6       6
       6       6       6       1       1       6       1       6       6       1
       1       1       6       6       1       6       6       1       6       6
       1       6       6       1       6       1       1       1       6       6
       6       6       6       1       6       6       6       6       6       1
       1       6       1       6       6       1       1       1       6       6
       1       6       6       1       6       6       1       6       6       1
       6       1       1       1       6       6       6       6       6       1
       6       6       6       6       6       1       1       6       1       6
       6       1       1       1       6       6       1       6       6       1
       6       6       1       6       6       1       6       1       1       1
       6       6       6       6       6       1       6       6       6       6
       6       1       1       6       1       6       6       1       1       1
       6       6       1       6       6       1       6       6       1       6
       6       1       6       1       1       1       6       6       6       6
       6       1       6       6       6       6       6       1       1       6
       1       6       6       1       1       1       6       6       1       6
       6       1       6       6       1       6       6       1       6       1
       1       1       6       6       6       6       6       1       6       6
       6       6       6       1       1       6       1       6       6       1
       1       1       6       6       1       6       6       1       6       6
       1       6       6       1       6       1       1       1       6       6
       6       6       6       1       6       6       6       6       6       1
       1       6       1       6       6       1       1       1       6       6
       1       6       6       1       6       6       1       6       6       1
       6       1       1       1       6       6       6       6       6       1
       6       6       6       6       6       1       1       6       1       6
       6       1       1       1       6       6       1       6       6       1
       6       6       1       6       6       1       6       1       1       1
       6       6       6       6       6       1       6       6       6       6
       6       1       1       6       1       6       6       1       1       1
       6       6       1       6       6       1       6       6       1       6
       6       1       6       1       1       1       6       6       6       6
       6       1       6       6       6       6       6       1       1       6
       1       6       6       1       1       1       6       6       1       6
       6       1       6       6       1       6       6       1       6       1
       1       1       6       6       6       6       6       1       6       6
       6       6       6       1       1       6       1       6       6       1
       1       1       6       6       1       6       6       1       6       6
       1       6       6       1       6       1       1       1       6       6
       6       6       6       1       6       6       6       6       6       1
       1       6       1       6       6       1       1       1       6       6
       1       6       6       1       6       6       1       6       6       1
       6       1       1       1       6       6       6       6       6       1
       6       6       6       6       6       1       1       6       1       6
       6       1       1       1       6       6       1       6       6       1
       6       6       1       6       6       1       6       1       1       1
       6       6       6       6       6       1       6       6       6       6
       6       1       1       6       1       6       6       1       1       1
       6       6       1       6       6       1       6       6       1       6
       6       1       6       1       1       1       6       6       6       6
       6       1       6       6       6       6       6       1       1       6
       1       6       6       1       1       1       6       6       1       6
       6       1       6       6       1       6       6       1       6       1
       1       1       6       6       6       6       6       1       6       6
       6       6       6       1       1       6       1       6       6       1
       1       1       6       6       1       6       6       1       6       6
       1       6       6       1       6       1       1       1       6       6
       6       6       6       1       6       6       6       6       6       1
       1       6       1       6       6       1       1       1       6       6
       1       6       6       1       6       6       1       6       6       1
       6       1       1       1       6       6       6       6       6       1
       6       6       6       6       6       1       1       6       1       6
       6       1       1       1       6       6       1       6       6       1
       6       6       1       6       6       1       6       1       1       1
       6       6       6       6       6       1       6       6       6       6
       6       1       1       6       1       6       6       1       1       1
       6       6       1       6       6       1       6       6       1       6
       6       1       6       1       1       1       6       6       6       6
       6       1       6       6       6       6       6       1       1       6
       1       6       6       1       1       1       6       6       1       6
       6       1       6       6       1       6       6       1       6       1
       1       1       6       6       6       6       6       1       6       6
       6       6       6       1       1       6       1       6       6       1
       1       1       6       6       1       6       6       1       6       6
       1       6       6       1       6       1       1       1       6       6
       6       6       6       1       6       6       6       6       6       1
       1       6       1       6       6       1       1       1       6       6
       1       6       6       1       6       6       1       6       6       1
       6       1       1       1       6       6       6       6       6       1
       6       6       6       6       6       1       1       6       1       6
       6       1       1       1       6       6       1       6       6       1
       6       6       1       6       6       1       6       1       1       1
       6       6       6       6       6       1       6       6       6       6
       6       1       1       6       1       6       6       1       1       1
       6       6       1       6       6       1       6       6       1       6
       6       1       6       1       1       1       6       6       6       6
       6       1       6       6       6       6       6       1       1       6
       1       6       6       1       1       1       6       6       1       6
       6       1       6       6       1       6       6       1       6       1
       1       1       6       6       6       6       6       1       6       6
       6       6       6       1       1       6       1       6       6       1
       1       1       6       6       1       6       6       1       6       6
       1       6       6       1       6       1       1       1       6       6
       6       6       6       1       6       6       6       6       6       1
       1       6       1       6       6       1       1       1       6       6
       1       6       6       1       6       6       1       6       6       1
       6       1       1       1       6       6       6       6       6       1
       6       6       6       6       6       1       1       6       1       6
       6       1       1       1       6       6       1       6       6       1
       6       6       1       6       6       1       6       1       1       1
       6       6       6       6       6       1       6       6       6       6
       6       1       1       6       1       6       6       1       1       1
       6       6       1       6       6       1       6       6       1       6
       6       1       6       1       1       1       6       6       6       6
       6       1       6       6       6       6       6       1       1       6
       1       6       6       1       1       1       6       6       1       6
       6       1       6       6       1       6       6       1       6       1
       1       1       6       6       6       6       6       1       6       6
       6       6       6       1       1       6       1       6       6       1
       1       1       6       6       1       6       6       1       6       6
       1       6       6       1       6       1       1       1       6       6
       6       6       6       1       6       6       6       6       6       1
       1       6       1       6       6       1       1       1       6       6
       1       6       6       1       6       6       1       6       6       1
       6       1       1       1       6       6       6       6       6       1
       6       6       6       6       6       1       1       6       1       6
       6       1       1       1       6       6       1       6       6       1
       6       6       1       6       6       1       6       1       1       1
       6       6       6       6       6       1       6       6       6       6
       6       1       1       6       1       6       6       1       1       1
       6       6       1       6       6       1       6       6       1       6
       6       1       6       1       1       1       6       6       6       6
       6       1       6       6       6       6       6       1       1       6
       1       6       6       1       1       1       6       6       1       6
       6       1       6       6       1       6       6       1       6       1
       1       1       6       6       6       6       6       1       6       6
       6       6       6       1       1       6       1       6       6       1
       1       1       6       6       1       6       6       1       6       6
       1       6       6       1       6       1       1       1       6       6
       6       6       6       1       6       6       6       6       6       1
       1       6       1       6       6       1       1       1       6       6
       1       6       6       1       6       6       1       6       6       1
       6       1       1       1       6       6       6       6       6       1
       6       6       6       6       6       1       1       6       1       6
       6       1       1       1       6       6       1       6       6       1
       6       6       1       6       6       1       6       1       1       1
       6       6       6       6       6       1       6       6       6       6
       6       1       1       6       1       6       6       1       1       1
       6       6       1       6       6       1       6       6       1       6
       6       1       6       1       1       1       6       6       6       6
       6       1       6       6       6       6       6       1       1       6
       1       6       6       1       1       1       6       6       1       6
       6       1       6       6       1       6       6       1       6       1
       1       1       6       6       6       6       6       1       6       6
       6       6       6       1       1       6       1       6       6       1
       1       1       6       6       1       6       6       1       6       6
       1       6       6       1       6       1       1       1       6       6
       6       6       6       1       6       6       6       6       6       1
       1       6       1       6       6       1       1       1       6       6
       1       6       6       1       6       6       1       6       6       1
       6       1       1       1       6       6       6       6       6       1
       6       6       6       6       6       1       1       6       1       6
       6       1       1       1       6       6       1       6       6       1
       6       6       1       6       6       1       6       1       1       1
       6       6       6       6       6       1       6       6       6       6
       6       1       1       6       1       6       6       1       1       1
       6       6       1       6       6       1       6       6       1       6
       6       1       6       1       1       1       6       6       6       6
       6       1       6       6       6       6       6       1       1       6
       1       6       6       1       1       1       6       6       1       6
       6       1       6       6       1       6       6       1       6       1
       1       1       6       6       6       6       6       1       6       6
       6       6       6       1       1       6       1       6       6       1
       1       1       6       6       1       6       6       1       6       6
       1       6       6       1       6       1       1       1       6       6
       6       6       6       1       6       6       6       6       6       1
       1       6       1       6       6       1       1       1       6       6
       1       6       6       1       6       6       1       6       6       1
       6       1       1       1       6       6       6       6       6       1
       6       6       6       6       6       1       1       6       1       6
       6       1       1       1       6       6       1       6       6       1
       6       6       1       6       6       1       6       1       1       1
       6       6       6       6       6       1       6       6       6       6
       6       1       1       6       1       6       6       1       1       1
       6       6       1       6       6       1       6       6       1       6
       6       1       6       1       1       1       6       6       6       6
       6       1       6       6       6       6       6       1       1       6
       1       6       6       1       1       1       6       6       1       6
       6       1       6       6       1       6       6       1       6       1
       1       1       6       6       6       6       6       1       6       6
       6       6       6       1       1       6       1       6       6       1
       1       1       6       6       1       6       6       1       6       6
       1       6       6       1       6       1       1       1       6       6
       6       6       6       1       6       6       6       6       6       1
       1       6       1       6       6       1       1       1       6       6
       1       6       6       1       6       6       1       6       6       1
       6       1       1       1       6       6       6       6       6       1
       6       6       6       6       6       1       1       6       1       6
       6       1       1       1       6       6       1       6       6       1
       6       6       1       6       6       1       6       1       1       1
       6       6       6       6       6       1       6       6       6       6
       6       1       1       6       1       6       6       1       1       1
       6       6       1       6       6       1       6       6       1       6
       6       1       6       1       1       1       6       6       6       6
       6       1       6       6       6       6       6       1       1       6
       1       6       6       1       1       1       6       6       1       6
       6       1       6       6       1       6       6       1       6       1
       1       1       6       6       6       6       6       1       6       6
       6       6       6       1       1       6       1       6       6       1
       1       1       6       6       1       6       6       1       6       6
       1       6       6       1       6       1       1       1       6       6
       6       6       6       1       6       6       6       6       6       1
       1       6       1       6       6       1       1       1       6       6
       1       6       6       1       6       6       1       6       6       1
       6       1       1       1       6       6       6       6       6       1
       6       6       6       6       6       1       1       6       1       6
       6       1       1       1       6       6       1       6       6       1
       6       6       1       6       6       1       6       1       1       1
       6       6       6       6       6       1       6       6       6       6
       6       1       1       6       1       6       6       1       1       1
       6       6       1       6       6       1       6       6       1       6
       6       1       6       1       1       1       6       6       6       6
       6       1       6       6       6       6       6       1       1       6
       1       6       6       1       1       1       6       6       1       6
       6       1       6       6       1       6       6       1       6       1
       1       1       6       6       6       6       6       1       6       6
       6       6       6       1       1       6       1       6       6       1
       1       1       6       6       1       6       6       1       6       6
       1       6       6       1       6       1       1       1       6       6
       6       6       6       1       6       6       6       6       6       1
       1       6       1       6       6       1       1       1       6       6
       1       6       6       1       6       6       1       6       6       1
       6       1       1       1       6       6       6       6       6       1
       6       6       6       6       6       1       1       6       1       6
       6       1       1       1       6       6       1       6       6       1
       6       6       1       6       6       1       6       1       1       1
       6       6       6       6       6       1       6       6       6       6
       6       1       1       6       1       6       6       1       1       1
       6       6       1       6       6       1       6       6       1       6
       6       1       6       1       1       1       6       6       6       6
       6       1       6       6       6       6       6       1       1       6
       1       6       6       1       1       1       6       6       1       6
       6       1       6       6       1       6       6       1       6       1
       1       1       6       6       6       6       6       1       6       6
       6       6       6       1       1       6       1       6       6       1
       1       1       6       6       1       6       6       1       6       6
       1       6       6       1       6       1       1       1       6       6
       6       6       6       1       6       6       6       6       6       1
       1       6       1       6       6       1       1       1       6       6
       1       6       6       1       6       6       1       6       6       1
       6       1       1       1       6       6       6       6       6       1
       6       6       6       6       6       1       1       6       1       6
       6       1       1       1       6       6       1       6       6       1
       6       6       1       6       6       1       6       1       1       1
       6       6       6       6       6       1       6       6       6       6
       6       1       1       6       1       6       6       1       1       1
       6       6       1       6       6       1       6       6       1       6
       6       1       6       1       1       1       6       6       6       6
       6       1       6       6       6       6       6       1       1       6
       1       6       6       1       1       1       6       6       1       6
       6       1       6       6       1       6       6       1       6       1
       1       1       6       6       6       6       6       1       6       6
       6       6       6       1       1       6       1       6       6       1
       1       1       6       6       1       6       6       1       6       6
       1       6       6       1       6       1       1       1       6       6
       6       6       6       1       6       6       6       6       6       1
       1       6       1       6       6       1       1       1       6       6
       1       6       6       1       6       6       1       6       6       1
       6       1       1       1       6       6       6       6       6       1
       6       6       6       6       6       1       1       6       1       6
       6       1       1       1       6       6       1       6       6       1
       6       6       1       6       6       1       6       1       1       1
       6       6       6       6       6       1       6       6       6       6
       6       1       1       6       1       6       6       1       1       1
       6       6       1       6       6       1       6       6       1       6
       6       1       6       1       1       1       6       6       6       6
       6       1       6       6       6       6       6       1       1       6
       1       6       6       1       1       1       6       6       1       6
       6       1       6       6       1       6       6       1       6       1
       1       1       6       6       6       6       6       1       6       6
       6       6       6       1       1       6       1       6       6       1
       1       1       6       6       1       6       6       1       6       6
       1       6       6       1       6       1       1       1       6       6
       6       6       6       1       6       6       6       6       6       1
       1       6       1       6       6       1       1       1       6       6
       1       6       6       1       6       6       1       6       6       1
       6       1       1       1       6       6       6       6       6       1
       6       6       6       6       6       1       1       6       1       6
       6       1       1       1       6       6       1       6       6       1
       6       6       1       6       6       1       6       1       1       1
       6       6       6       6       6       1       6       6       6       6
       6       1       1       6       1       6       6       1       1       1
       6       6       1       6       6       1       6       6       1       6
       6       1       6       1       1       1       6       6       6       6
       6       1       6       6       6       6       6       1       1       6
       1       6       6       1       1       1       6       6       1       6
       6       1       6       6       1       6       6       1       6       1
       1       1       6       6       6       6       6       1       6       6
       6       6       6       1       1       6       1       6       6       1
       1       1       6       6       1       6       6       1       6       6
       1       6       6       1       6       1       1       1       6       6
       6       6       6       1       6       6       6       6       6       1
       1       6       1       6       6       1       1       1       6       6
       1       6       6       1       6       6       1       6       6       1
       6       1       1       1       6       6       6       6       6       1
       6       6       6       6       6       1       1       6       1       6
       6       1       1       1       6       6       1       6       6       1
       6       6       1       6       6       1       6       1       1       1
       6       6       6       6       6       1       6       6       6       6
       6       1       1       6       1       6       6       1       1       1
       6       6       1       6       6       1       6       6       1       6
       6       1       6       1       1       1       6       6       6       6
       6       1       6       6       6       6       6       1       1       6
       1       6       6       1       1       1       6       6       1       6
       6       1       6       6       1       6       6       1       6       1
       1       1       6       6       6       6       6       1       6       6
       6       6       6       1       1       6       1       6       6       1
       1       1       6       6       1       6       6       1       6       6
       1       6       6       1       6       1       1       1       6       6
       6       6       6       1       6       6       6       6       6       1
       1       6       1       6       6       1       1       1       6       6
       1       6       6       1       6       6       1       6       6       1
       6       1       1       1       6       6       6       6       6       1
       6       6       6       6       6       1       1       6       1       6
       6       1       1       1       6       6       1       6       6       1
       6       6       1       6       6       1       6       1       1       1
       6       6       6       6       6       1       6       6       6       6
       6       1       1       6       1       6       6       1       1       1
       6       6       1       6       6       1       6       6       1       6
       6       1       6       1       1       1       6       6       6       6
       6       1       6       6       6       6       6       1       1       6
       1       6       6       1       1       1       6       6       1       6
       6       1       6       6       1       6       6       1       6       1
       1       1       6       6       6       6       6       1       6       6
       6       6       6       1       1       6       1       6       6       1
       1       1       6       6       1       6       6       1       6       6
       1       6       6       1       6       1       1       1       6       6
       6       6       6       1       6       6       6       6       6       1
       1       6       1       6       6       1       1       1       6       6
       1       6       6       1       6       6       1       6       6       1
       6       1       1       1       6       6       6       6       6       1
       6       6       6       6       6       1       1       6       1       6
       6       1       1       1       6       6       1       6       6       1
       6       6       1       6       6       1       6       1       1       1
       6       6       6       6       6       1       6       6       6       6
       6       1       1       6       1       6       6       1       1       1
       6       6       1       6       6       1       6       6       1       6
       6       1       6       1       1       1       6       6       6       6
       6       1       6       6       6       6       6       1       1       6
       1       6       6       1       1       1       6       6       1       6
       6       1       6       6       1       6       6       1       6       1
       1       1       6       6       6       6       6       1       6       6
       6       6       6       1       1       6       1       6       6       1
       1       1       6       6       1       6       6       1       6       6
       1       6       6       1       6       1       1       1       6       6
       6       6       6       1       6       6       6       6       6       1
       1       6       1       6       6       1       1       1       6       6
       1       6       6       1       6       6       1       6       6       1
       6       1       1       1       6       6       6       6       6       1
       6       6       6       6       6       1       1       6       1       6
       6       1       1       1       6       6       1       6       6       1
       6       6       1       6       6       1       6       1       1       1
       6       6       6       6       6       1       6       6       6       6
       6       1       1       6       1       6       6       1       1       1
       6       6       1       6       6       1       6       6       1       6
       6       1       6       1       1       1       6       6       6       6
       6       1       6       6       6       6       6       1       1       6
       1       6       6       1       1       1       6       6       1       6
       6       1       6       6       1       6       6       1       6       1
       1       1       6       6       6       6       6       1       6       6
       6       6       6       1       1       6       1       6       6       1
       1       1       6       6       1       6       6       1       6       6
       1       6       6       1       6       1       1       1       6       6
       6       6       6       1       6       6       6       6       6       1
       1       6       1       6       6       1       1       1       6       6
       1       6       6       1       6       6       1       6       6       1
       6       1       1       1       6       6       6       6       6       1
       6       6       6       6       6       1       1       6       1       6
       6       1       1       1       6       6       1       6       6       1
       6       6       1       6       6       1       6       1       1       1
       6       6       6       6       6       1       6       6       6       6
       6       1       1       6       1       6       6       1       1       1
       6       6       1       6       6       1       6       6       1       6
       6       1       6       1       1       1       6       6       6       6
       6       1       6       6       6       6       6       1       1       6
       1       6       6       1       1       1       6       6       1       6
       6       1       6       6       1       6       6       1       6       1
       1       1       6       6       6       6       6       1       6       6
       6       6       6       1       1       6       1       6       6       1
       1       1       6       6       1       6       6       1       6       6
       1       6       6       1       6       1       1       1       6       6
       6       6       6       1       6       6       6       6       6       1
       1       6       1       6       6       1       1       1       6       6
       1       6       6       1       6       6       1       6       6       1
       6       1       1       1       6       6       6       6       6       1
       6       6       6       6       6       1       1       6       1       6
       6       1       1       1       6       6       1       6       6       1
       6       6       1       6       6       1       6       1       1       1
       6       6       6       6       6       1       6       6       6       6
       6       1       1       6       1       6       6       1       1       1
       6       6       1       6       6       1       6       6       1       6
       6       1       6       1       1       1       6       6       6       6
       6       1       6       6       6       6       6       1       1       6
       1       6       6       1       1       1       6       6       1       6
       6       1       6       6       1       6       6       1       6       1
       1       1       6       6       6       6       6       1       6       6
       6       6       6       1       1       6       1       6       6       1
       1       1       6       6       1       6       6       1       6       6
       1       6       6       1       6       1       1       1       6       6
       6       6       6       1       6       6       6       6       6       1
       1       6       1       6       6       1       1       1       6       6
       1       6       6       1       6       6       1       6       6       1
       6       1       1       1       6       6       6       6       6       1
       6       6       6       6       6       1       1       6       1       6
       6       1       1       1       6       6       1       6       6       1
       6       6       1       6       6       1       6       1       1       1
       6       6       6       6       6       1       6       6       6       6
       6       1       1       6       1       6       6       1       1       1
       6       6       1       6       6       1       6       6       1       6
       6       1       6       1       1       1       6       6       6       6
       6       1       6       6       6       6       6       1       1       6
       1       6       6       1       1       1       6       6       1       6
       6       1       6       6       1       6       6       1       6       1
       1       1       6       6       6       6       6       1       6       6
       6       6       6       1       1       6       1       6       6       1
       1       1       6       6       1       6       6       1       6       6
       1       6       6       1       6       1       1       1       6       6
       6       6       6       1       6       6       6       6       6       1
       1       6       1       6       6       1       1       1       6       6
       1       6       6       1       6       6       1       6       6       1
       6       1       1       1       6       6       6       6       6       1
       6       6       6       6       6       1       1       6       1       6
       6       1       1       1       6       6       1       6       6       1
       6       6       1       6       6       1       6       1       1       1
       6       6       6       6       6       1       6       6       6       6
       6       1       1       6       1       6       6       1       1       1
       6       6       1       6       6       1       6       6       1       6
       6       1       6       1       1       1       6       6       6       6
       6       1       6       6       6       6       6       1       1       6
       1       6       6       1       1       1       6       6       1       6
       6       1       6       6       1       6       6       1       6       1
       1       1       6       6       6       6       6       1       6       6
       6       6       6       1       1       6       1       6       6       1
       1       1       6       6       1       6       6       1       6       6
       1       6       6       1       6       1       1       1       6       6
       6       6       6       1       6       6       6       6       6       1
       1       6       1       6       6       1       1       1       6       6
       1       6       6       1       6       6       1       6       6       1
       6       1       1       1       6       6       6       6       6       1
       6       6       6       6       6       1       1       6       1       6
       6       1       1       1       6       6       1       6       6       1
       6       6       1       6       6       1       6       1       1       1
       6       6       6       6       6       1       6       6       6       6
       6       1       1       6       1       6       6       1       1       1
       6       6       1       6       6       1       6       6       1       6
       6       1       6       1       1       1       6       6       6       6
       6       1       6       6       6       6       6       1       1       6
       1       6       6       1       1       1       6       6       1       6
       6       1       6       6       1       6       6       1       6       1
       1       1       6       6       6       6       6       1       6       6
       6       6       6       1       1       6       1       6       6       1
       1       1       6       6       1       6       6       1       6       6
       1       6       6       1       6       1       1       1       6       6
       6       6       6       1       6       6       6       6       6       1
       1       6       1       6       6       1       1       1       6       6
       1       6       6       1       6       6       1       6       6       1
       6       1       1       1       6       6       6       6       6       1
       6       6       6       6       6       1       1       6       1       6
       6       1       1       1       6       6       1       6       6       1
       6       6       1       6       6       1       6       1       1       1
       6       6       6       6       6       1       6       6       6       6
       6       1       1       6       1       6       6       1       1       1
       6       6       1       6       6       1       6       6       1       6
       6       1       6       1       1       1       6       6       6       6
       6       1       6       6       6       6       6       1       1       6
       1       6       6       1       1       1       6       6       1       6
       6       1       6       6       1       6       6       1       6       1
       1       1       6       6       6       6       6       1       6       6
       6       6       6       1       1       6       1       6       6       1
       1       1       6       6       1       6       6       1       6       6
       1       6       6       1       6       1       1       1       6       6
       6       6       6       1       6       6       6       6       6       1
       1       6       1       6       6       1       1       1       6       6
       1       6       6       1       6       6       1       6       6       1
       6       1       1       1       6       6       6       6       6       1
       6       6       6       6       6       1       1       6       1       6
       6       1       1       1       6       6       1       6       6       1
       6       6       1       6       6       1       6       1       1       1
       6       6       6       6       6       1       6       6       6       6
       6       1       1       6       1       6       6       1       1       1
       6       6       1       6       6       1       6       6       1       6
       6       1       6       1       1       1       6       6       6       6
       6       1       6       6       6       6       6       1       1       6
       1       6       6       1       1       1       6       6       1       6
       6       1       6       6       1       6       6       1       6       1
       1       1       6       6       6       6       6       1       6       6
       6       6       6       1       1       6       1       6       6       1
       1       1       6       6       1       6       6       1       6       6
       1       6       6       1       6       1       1       1       6       6
       6       6       6       1       6       6       6       6       6       1
       1       6       1       6       6       1       1       1       6       6
       1       6       6       1       6       6       1       6       6       1
       6       1       1       1       6       6       6       6       6       1
       6       6       6       6       6       1       1       6       1       6
       6       1       1       1       6       6       1       6       6       1
       6       6       1       6       6       1       6       1       1       1
       6       6       6       6       6       1       6       6       6       6
       6       1       1       6       1       6       6       1       1       1
       6       6       1       6       6       1       6       6       1       6
       6       1       6       1       1       1       6       6       6       6
       6       1       6       6       6       6       6       1       1       6
       1       6       6       1       1       1       6       6       1       6
       6       1       6       6       1       6       6       1       6       1
       1       1       6       6       6       6       6       1       6       6
       6       6       6       1       1       6       1       6       6       1
       1       1       6       6       1       6       6       1       6       6
       1       6       6       1       6       1       1       1       6       6
       6       6       6       1       6       6       6       6       6       1
       1       6       1       6       6       1       1       1       6       6
       1       6       6       1       6       6       1       6       6       1
       6       1       1       1       6       6       6       6       6       1
       6       6       6       6       6       1       1       6       1       6
       6       1       1       1       6       6       1       6       6       1
       6       6       1       6       6       1       6       1       1       1
       6       6       6       6       6       1       6       6       6       6
       6       1       1       6       1       6       6       1       1       1
       6       6       1       6       6       1       6       6       1       6
       6       1       6       1       1       1       6       6       6       6
       6       1       6       6       6       6       6       1       1       6
       1       6       6       1       1       1       6       6       1       6
       6       1       6       6       1       6       6       1       6       1
       1       1       6       6       6       6       6       1       6       6
       6       6       6       1       1       6       1       6       6       1
       1       1       6       6       1       6       6       1       6       6
       1       6       6       1       6       1       1       1       6       6
       6       6       6       1       6       6       6       6       6       1
       1       6       1       6       6       1       1       1       6       6
       1       6       6       1       6       6       1       6       6       1
       6       1       1       1       6       6       6       6       6       1
       6       6       6       6       6       1       1       6       1       6
       6       1       1       1       6       6       1       6       6       1
       6       6       1       6       6       1       6       1       1       1
       6       6       6       6       6       1       6       6       6       6
       6       1       1       6       1       6       6       1       1       1
       6       6       1       6       6       1       6       6       1       6
       6       1       6       1       1       1       6       6       6       6
       6       1       6       6       6       6       6       1       1       6
       1       6       6       1       1       1       6       6       1       6
       6       1       6       6       1       6       6       1       6       1
       1       1       6       6       6       6       6       1       6       6
       6       6       6       1       1       6       1       6       6       1
       1       1       6       6       1       6       6       1       6       6
       1       6       6       1       6       1       1       1       6       6
       6       6       6       1       6       6       6       6       6       1
       1       6       1       6       6       1       1       1       6       6
       1       6       6       1       6       6       1       6       6       1
       6       1       1       1       6       6       6       6       6       1
       6       6       6       6       6       1       1       6       1       6
       6       1       1       1       6       6       1       6       6       1
       6       6       1       6       6       1       6       1       1       1
       6       6       6       6       6       1       6       6       6       6
       6       1       1       6       1       6       6       1       1       1
       6       6       1       6       6       1       6       6       1       6
       6       1       6       1       1       1       6       6       6       6
       6       1       6       6       6       6       6       1       1       6
       1       6       6       1       1       1       6       6       1       6
       6       1       6       6       1       6       6       1       6       1
       1       1       6       6       6       6       6       1       6       6
       6       6       6       1       1       6       1       6       6       1
       1       1       6       6       1       6       6       1       6       6
       1       6       6       1       6       1       1       1       6       6
       6       6       6       1       6       6       6       6       6       1
       1       6       1       6       6       1       1       1       6       6
       1       6       6       1       6       6       1       6       6       1
       6       1       1       1       6       6       6       6       6       1
       6       6       6       6       6       1       1       6       1       6
       6       1       1       1       6       6       1       6       6       1
       6       6       1       6       6       1       6       1       1       1
       6       6       6       6       6       1       6       6       6       6
       6       1       1       6       1       6       6       1       1       1
       6       6       1       6       6       1       6       6       1       6
       6       1       6       1       1       1       6       6       6       6
       6       1       6       6       6       6       6       1       1       6
       1       6       6       1       1       1       6       6       1       6
       6       1       6       6       1       6       6       1       6       1
       1       1       6       6       6       6       6       1       6       6
       6       6       6       1       1       6       1       6       6       1
       1       1       6       6       1       6       6       1       6       6
       1       6       6       1       6       1       1       1       6       6
       6       6       6       1       6       6       6       6       6       1
       1       6       1       6       6       1       1       1       6       6
       1       6       6       1       6       6       1       6       6       1
       6       1       1       1       6       6       6       6       6       1
       6       6       6       6       6       1       1       6       1       6
       6       1       1       1       6       6       1       6       6       1
       6       6       1       6       6       1       6       1       1       1
       6       6       6       6       6       1       6       6       6       6
       6       1       1       6       1       6       6       1       1       1
       6       6       1       6       6       1       6       6       1       6
       6       1       6       1       1       1       6       6       6       6
       6       1       6       6       6       6       6       1       1       6
       1       6       6       1       1       1       6       6       1       6
       6       1       6       6       1       6       6       1       6       1
       1       1       6       6       6       6       6       1       6       6
       6       6       6       1       1       6       1       6       6       1
       1       1       6       6       1       6       6       1       6       6
       1       6       6       1       6       1       1       1       6       6
       6       6       6       1       6       6       6       6       6       1
       1       6       1       6       6       1       1       1       6       6
       1       6       6       1       6       6       1       6       6       1
       6       1       1       1       6       6       6       6       6       1
       6       6       6       6       6       1       1       6       1       6
       6       1       1       1       6       6       1       6       6       1
       6       6       1       6       6       1       6       1       1       1
       6       6       6       6       6       1       6       6       6       6
       6       1       1       6       1       6       6       1       1       1
       6       6       1       6       6       1       6       6       1       6
       6       1       6       1       1       1       6       6       6       6
       6       1       6       6       6       6       6       1       1       6
       1       6       6       1       1       1       6       6       1       6
       6       1       6       6       1       6       6       1       6       1
       1       1       6       6       6       6       6       1       6       6
       6       6       6       1       1       6       1       6       6       1
       1       1       6       6       1       6       6       1       6       6
       1       6       6       1       6       1       1       1       6       6
       6       6       6       1       6       6       6       6       6       1
       1       6       1       6       6       1       1       1       6       6
       1       6       6       1       6       6       1       6       6       1
       6       1       1       1       6       6       6       6       6       1
       6       6       6       6       6       1       1       6       1       6
       6       1       1       1       6       6       1       6       6       1
       6       6       1       6       6       1       6       1       1       1
       6       6       6       6       6       1       6       6       6       6
       6       1       1       6       1       6       6       1       1       1
       6       6       1       6       6       1       6       6       1       6
       6       1       6       1       1       1       6       6       6       6
       6       1       6       6       6       6       6       1       1       6
       1       6       6       1       1       1       6       6       1       6
       6       1       6       6       1       6       6       1       6       1
       1       1       6       6       6       6       6       1       6       6
       6       6       6       1       1       6       1       6       6       1
       1       1       6       6       1       6       6       1       6       6
       1       6       6       1       6       1       1       1       6       6
       6       6       6       1       6       6       6       6       6       1
       1       6       1       6       6       1       1       1       6       6
       1       6       6       1       6       6       1       6       6       1
       6       1       1       1       6       6       6       6       6       1
       6       6       6       6       6       1       1       6       1       6
       6       1       1       1       6       6       1       6       6       1
       6       6       1       6       6       1       6       1       1       1
       6       6       6       6       6       1       6       6       6       6
       6       1       1       6       1       6       6       1       1       1
       6       6       1       6       6       1       6       6       1       6
       6       1       6       1       1       1       6       6       6       6
       6       1       6       6       6       6       6       1       1       6
       1       6       6       1       1       1       6       6       1       6
       6       1       6       6       1       6       6       1       6       1
       1       1       6       6       6       6       6       1       6       6
       6       6       6       1       1       6       1       6       6       1
       1       1       6       6       1       6       6       1       6       6
       1       6       6       1       6       1       1       1       6       6
       6       6       6       1       6       6       6       6       6       1
       1       6       1       6       6       1       1       1       6       6
       1       6       6       1       6       6       1       6       6       1
       6       1       1       1       6       6       6       6       6       1
       6       6       6       6       6       1       1       6       1       6
       6       1       1       1       6       6       1       6       6       1
       6       6       1       6       6       1       6       1       1       1
       6       6       6       6       6       1       6       6       6       6
       6       1       1       6       1       6       6       1       1       1
       6       6       1       6       6       1       6       6       1       6
       6       1       6       1       1       1       6       6       6       6
       6       1       6       6       6       6       6       1       1       6
       1       6       6       1       1       1       6       6       1       6
       6       1       6       6       1       6       6       1       6       1
       1       1       6       6       6       6       6       1       6       6
       6       6       6       1       1       6       1       6       6       1
       1       1       6       6       1       6       6       1       6       6
       1       6       6       1       6       1       1       1       6       6
       6       6       6       1       6       6       6       6       6       1
       1       6       1       6       6       1       1       1       6       6
       1       6       6       1       6       6       1       6       6       1
       6       1       1       1       6       6       6       6       6       1
       6       6       6       6       6       1       1       6       1       6
       6       1       1       1       6       6       1       6       6       1
       6       6       1       6       6       1       6       1       1       1
       6       6       6       6       6       1       6       6       6       6
       6       1       1       6       1       6       6       1       1       1
       6       6       1       6       6       1       6       6       1       6
       6       1       6       1       1       1       6       6       6       6
       6       1       6       6       6       6       6       1       1       6
       1       6       6       1       1       1       6       6       1       6
       6       1       6       6       1       6       6       1       6       1
       1       1       6       6       6       6       6       1       6       6
       6       6       6       1       1       6       1       6       6       1
       1       1       6       6       1       6       6       1       6       6
       1       6       6       1       6       1       1       1       6       6
       6       6       6       1       6       6       6       6       6       1
       1       6       1       6       6       1       1       1       6       6
       1       6       6       1       6       6       1       6       6       1
       6       1       1       1       6       6       6       6       6       1
       6       6       6       6       6       1       1       6       1       6
       6       1       1       1       6       6       1       6       6       1
       6       6       1       6       6       1       6       1       1       1
       6       6       6       6       6       1       6       6       6       6
       6       1       1       6       1       6       6       1       1       1
       6       6       1       6       6       1       6       6       1       6
       6       1       6       1       1       1       6       6       6       6
       6       1       6       6       6       6       6       1       1       6
       1       6       6       1       1       1       6       6       1       6
       6       1       6       6       1       6       6       1       6       1
       1       1       6       6       6       6       6       1       6       6
       6       6       6       1       1       6       1       6       6       1
       1       1       6       6       1       6       6       1       6       6
       1       6       6       1       6       1       1       1       6       6
       6       6       6       1       6       6       6       6       6       1
       1       6       1       6       6       1       1       1       6       6
       1       6       6       1       6       6       1       6       6       1
       6       1       1       1       6       6       6       6       6       1
       6       6       6       6       6       1       1       6       1       6
       6       1       1       1       6       6       1       6       6       1
       6       6       1       6       6       1       6       1       1       1
       6       6       6       6       6       1       6       6       6       6
       6       1       1       6       1       6       6       1       1       1
       6       6       1       6       6       1       6       6       1       6
       6       1       6       1       1       1       6       6       6       6
       6       1       6       6       6       6       6       1       1       6
       1       6       6       1       1       1       6       6       1       6
       6       1       6       6       1       6       6       1       6       1
       1       1       6       6       6       6       6       1       6       6
       6       6       6       1       1       6       1       6       6       1
       1       1       6       6       1       6       6       1       6       6
       1       6       6       1       6       1       1       1       6       6
       6       6       6       1       6       6       6       6       6       1
       1       6       1       6       6       1       1       1       6       6
       1       6       6       1       6       6       1       6       6       1
       6       1       1       1       6       6       6       6       6       1
       6       6       6       6       6       1       1       6       1       6
       6       1       1       1       6       6       1       6       6       1
       6       6       1       6       6       1       6       1       1       1
       6       6       6       6       6       1       6       6       6       6
       6       1       1       6       1       6       6       1       1       1
       6       6       1       6       6       1       6       6       1       6
       6       1       6       1       1       1       6       6       6       6
       6       1       6       6       6       6       6       1       1       6
       1       6       6       1       1       1       6       6       1       6
       6       1       6       6       1       6       6       1       6       1
       1       1       6       6       6       6       6       1       6       6
       6       6       6       1       1       6       1       6       6       1
       1       1       6       6       1       6       6       1       6       6
       1       6       6       1       6       1       1       1       6       6
       6       6       6       1       6       6       6       6       6       1
       1       6       1       6       6       1       1       1       6       6
       1       6       6       1       6       6       1       6       6       1
       6       1       1       1       6       6       6       6       6       1
       6       6       6       6       6       1       1       6       1       6
       6       1       1       1       6       6       1       6       6       1
       6       6       1       6       6       1       6       1       1       1
       6       6       6       6       6       1       6       6       6       6
       6       1       1       6       1       6       6       1       1       1
       6       6       1       6       6       1       6       6       1       6
       6       1       6       1       1       1       6       6       6       6
       6       1       6       6       6       6       6       1       1       6
       1       6       6       1       1       1       6       6       1       6
       6       1       6       6       1       6       6       1       6       1
       1       1       6       6       6       6       6       1       6       6
       6       6       6       1       1       6       1       6       6       1
       1       1       6       6       1       6       6       1       6       6
       1       6       6       1       6       1       1       1       6       6
       6       6       6       1       6       6       6       6       6       1
       1       6       1       6       6       1       1       1       6       6
       1       6       6       1       6       6       1       6       6       1
       6       1       1       1       6       6       6       6       6       1
       6       6       6       6       6       1       1       6       1       6
       6       1       1       1       6       6       1       6       6       1
       6       6       1       6       6       1       6       1       1       1
       6       6       6       6       6       1       6       6       6       6
       6       1       1       6       1       6       6       1       1       1
       6       6       1       6       6       1       6       6       1       6
       6       1       6       1       1       1       6       6       6       6
       6       1       6       6       6       6       6       1       1       6
       1       6       6       1       1       1       6       6       1       6
       6       1       6       6       1       6       6       1       6       1
       1       1       6       6       6       6       6       1       6       6
       6       6       6       1       1       6       1       6       6       1
       1       1       6       6       1       6       6       1       6       6
       1       6       6       1       6       1       1       1       6       6
       6       6       6       1       6       6       6       6       6       1
       1       6       1       6       6       1       1       1       6       6
       1       6       6       1       6       6       1       6       6       1
       6       1       1       1       6       6       6       6       6       1
       6       6       6       6       6       1       1       6       1       6
       6       1       1       1       6       6       1       6       6       1
       6       6       1       6       6       1       6       1       1       1
       6       6       6       6       6       1       6       6       6       6
       6       1       1       6       1       6       6       1       1       1
       6       6       1       6       6       1       6       6       1       6
       6       1       6       1       1       1       6       6       6       6
       6       1       6       6       6       6       6       1       1       6
       1       6       6       1       1       1       6       6       1       6
       6       1       6       6       1       6       6       1       6       1
       1       1       6       6       6       6       6       1       6       6
       6       6       6       1       1       6       1       6       6       1
       1       1       6       6       1       6       6       1       6       6
       1       6       6       1       6       1       1       1       6       6
       6       6       6       1       6       6       6       6       6       1
       1       6       1       6       6       1       1       1       6       6
       1       6       6       1       6       6       1       6       6       1
       6       1       1       1       6       6       6       6       6       1
       6       6       6       6       6       1       1       6       1       6
       6       1       1       1       6       6       1       6       6       1
       6       6       1       6       6       1       6       1       1       1
       6       6       6       6       6       1       6       6       6       6
       6       1       1       6       1       6       6       1       1       1
       6       6       1       6       6       1       6       6       1       6
       6       1       6       1       1       1       6       6       6       6
       6       1       6       6       6       6       6       1       1       6
       1       6       6       1       1       1       6       6       1       6
       6       1       6       6       1       6       6       1       6       1
       1       1       6       6       6       6       6       1       6       6
       6       6       6       1       1       6       1       6       6       1
       1       1       6       6       1       6       6       1       6       6
       1       6       6       1       6       1       1       1       6       6
       6       6       6       1       6       6       6       6       6       1
       1       6       1       6       6       1       1       1       6       6
       1       6       6       1       6       6       1       6       6       1
       6       1       1       1       6       6       6       6       6       1
       6       6       6       6       6       1       1       6       1       6
       6       1       1       1       6       6       1       6       6       1
       6       6       1       6       6       1       6       1       1       1
       6       6       6       6       6       1       6       6       6       6
       6       1       1       6       1       6       6       1       1       1
       6       6       1       6       6       1       6       6       1       6
       6       1       6       1       1       1       6       6       6       6
       6       1       6       6       6       6       6       1       1       6
       1       6       6       1       1       1       6       6       1       6
       6       1       6       6       1       6       6       1       6       1
       1       1       6       6       6       6       6       1       6       6
       6       6       6       1       1       6       1       6       6       1
       1       1       6       6       1       6       6       1       6       6
       1       6       6       1       6       1       1       1       6       6
       6       6       6       1       6       6       6       6       6       1
       1       6       1       6       6       1       1       1       6       6
       1       6       6       1       6       6       1       6       6       1
       6       1       1       1       6       6       6       6       6       1
       6       6       6       6       6       1       1       6       1       6
       6       1       1       1       6       6       1       6       6       1
       6       6       1       6       6       1       6       1       1       1
       6       6       6       6       6       1       6       6       6       6
       6       1       1       6       1       6       6       1       1       1
       6       6       1       6       6       1       6       6       1       6
       6       1       6       1       1       1       6       6       6       6
       6       1       6       6       6       6       6       1       1       6
       1       6       6       1       1       1       6       6       1       6
       6       1       6       6       1       6       6       1       6       1
       1       1       6       6       6       6       6       1       6       6
       6       6       6       1       1       6       1       6       6       1
       1       1       6       6       1       6       6       1       6       6
       1       6       6       1       6       1       1       1       6       6
       6       6       6       1       6       6       6       6       6       1
       1       6       1       6       6       1       1       1       6       6
       1       6       6       1       6       6       1       6       6       1
       6       1       1       1       6       6       6       6       6       1
       6       6       6       6       6       1       1       6       1       6
       6       1       1       1       6       6       1       6       6       1
       6       6       1       6       6       1       6       1       1       1
       6       6       6       6       6       1       6       6       6       6
       6       1       1       6       1       6       6       1       1       1
       6       6       1       6       6       1       6       6       1       6
       6       1       6       1       1       1       6       6       6       6
       6       1       6       6       6       6       6       1       1       6
       1       6       6       1       1       1       6       6       1       6
       6       1       6       6       1       6       6       1       6       1
       1       1       6       6       6       6       6       1       6       6
       6       6       6       1       1       6       1       6       6       1
       1       1       6       6       1       6       6       1       6       6
       1       6       6       1       6       1       1       1       6       6
       6       6       6       1       6       6       6       6       6       1
       1       6       1       6       6       1       1       1       6       6
       1       6       6       1       6       6       1       6       6       1
       6       1       1       1       6       6       6       6       6       1
       6       6       6       6       6       1       1       6       1       6
       6       1       1       1       6       6       1       6       6       1
       6       6       1       6       6       1       6       1       1       1
       6       6       6       6       6       1       6       6       6       6
       6       1       1       6       1       6       6       1       1       1
       6       6       1       6       6       1       6       6       1       6
       6       1       6       1       1       1       6       6       6       6
       6       1       6       6       6       6       6       1       1       6
       1       6       6       1       1       1       6       6       1       6
       6       1       6       6       1       6       6       1       6       1
       1       1       6       6       6       6       6       1       6       6
       6       6       6       1       1       6       1       6       6       1
       1       1       6       6       1       6       6       1       6       6
       1       6       6       1       6       1       1       1       6       6
       6       6       6       1       6       6       6       6       6       1
       1       6       1       6       6       1       1       1       6       6
       1       6       6       1       6       6       1       6       6       1
       6       1       1       1       6       6       6       6       6       1
       6       6       6       6       6       1       1       6       1       6
       6       1       1       1       6       6       1       6       6       1
       6       6       1       6       6       1       6       1       1       1
       6       6       6       6       6       1       6       6       6       6
       6       1       1       6       1       6       6       1       1       1
       6       6       1       6       6       1       6       6       1       6
       6       1       6       1       1       1       6       6       6       6
       6       1       6       6       6       6       6       1       1       6
       1       6       6       1       1       1       6       6       1       6
       6       1       6       6       1       6       6       1       6       1
       1       1       6       6       6       6       6       1       6       6
       6       6       6       1       1       6       1       6       6       1
       1       1       6       6       1       6       6       1       6       6
       1       6       6       1       6       1       1       1       6       6
       6       6       6       1       6       6       6       6       6       1
       1       6       1       6       6       1       1       1       6       6
       1       6       6       1       6       6       1       6       6       1
       6       1       1       1       6       6       6       6       6       1
       6       6       6       6       6       1       1       6       1       6
       6       1       1       1       6       6       1       6       6       1
       6       6       1       6       6       1       6       1       1       1
       6       6       6       6       6       1       6       6       6       6
       6       1       1       6       1       6       6       1       1       1
       6       6       1       6       6       1       6       6       1       6
       6       1       6       1       1       1       6       6       6       6
       6       1       6       6       6       6       6       1       1       6
       1       6       6       1       1       1       6       6       1       6
       6       1       6       6       1       6       6       1       6       1
       1       1       6       6       6       6       6       1       6       6
       6       6       6       1       1       6       1       6       6       1
       1       1       6       6       1       6       6       1       6       6
       1       6       6       1       6       1       1       1       6       6
       6       6       6       1       6       6       6       6       6       1
       1       6       1       6       6       1       1       1       6       6
       1       6       6       1       6       6       1       6       6       1
       6       1       1       1       6       6       6       6       6       1
       6       6       6       6       6       1       1       6       1       6
       6       1       1       1       6       6       1       6       6       1
       6       6       1       6       6       1       6       1       1       1
       6       6       6       6       6       1       6       6       6       6
       6       1       1       6       1       6       6       1       1       1
       6       6       1       6       6       1       6       6       1       6
       6       1       6       1       1       1       6       6       6       6
       6       1       6       6       6       6       6       1       1       6
       1       6       6       1       1       1       6       6       1       6
       6       1       6       6       1       6       6       1       6       1
       1       1       6       6       6       6       6       1       6       6
       6       6       6       1       1       6       1       6       6       1
       1       1       6       6       1       6       6       1       6       6
       1       6       6       1       6       1       1       1       6       6
       6       6       6       1       6       6       6       6       6       1
       1       6       1       6       6       1       1       1       6       6
       1       6       6       1       6       6       1       6       6       1
       6       1       1       1       6       6       6       6       6       1
       6       6       6       6       6       1       1       6       1       6
       6       1       1       1       6       6       1       6       6       1
       6       6       1       6       6       1       6       1       1       1
       6       6       6       6       6       1       6       6       6       6
       6       1       1       6       1       6       6       1       1       1
       6       6       1       6       6       1       6       6       1       6
       6       1       6       1       1       1       6       6       6       6
       6       1       6       6       6       6       6       1       1       6
       1       6       6       1       1       1       6       6       1       6
       6       1       6       6       1       6       6       1       6       1
       1       1       6       6       6       6       6       1       6       6
       6       6       6       1       1       6       1       6       6       1
       1       1       6       6       1       6       6       1       6       6
       1       6       6       1       6       1       1       1       6       6
       6       6       6       1       6       6       6       6       6       1
       1       6       1       6       6       1       1       1       6       6
       1       6       6       1       6       6       1       6       6       1
       6       1       1       1       6       6       6       6       6       1
       6       6       6       6       6       1       1       6       1       6
       6       1       1       1       6       6       1       6       6       1
       6       6       1       6       6       1       6       1       1       1
       6       6       6       6       6       1       6       6       6       6
       6       1       1       6       1       6       6       1       1       1
       6       6       1       6       6       1       6       6       1       6
       6       1       6       1       1       1       6       6       6       6
       6       1       6       6       6       6       6       1       1       6
       1       6       6       1       1       1       6       6       1       6
       6       1       6       6       1       6       6       1       6       1
       1       1       6       6       6       6       6       1       6       6
       6       6       6       1       1       6       1       6       6       1
       1       1       6       6       1       6       6       1       6       6
       1       6       6       1       6       1       1       1       6       6
       6       6       6       1       6       6       6       6       6       1
       1       6       1       6       6       1       1       1       6       6
       1       6       6       1       6       6       1       6       6       1
       6       1       1       1       6       6       6       6       6       1
       6       6       6       6       6       1       1       6       1       6
       6       1       1       1       6       6       1       6       6       1
       6       6       1       6       6       1       6       1       1       1
       6       6       6       6       6       1       6       6       6       6
       6       1       1       6       1       6       6       1       1       1
       6       6       1       6       6       1       6       6       1       6
       6       1       6       1       1       1       6       6       6       6
       6       1       6       6       6       6       6       1       1       6
       1       6       6       1       1       1       6       6       1       6
       6       1       6       6       1       6       6       1       6       1
       1       1       6       6       6       6       6       1       6       6
       6       6       6       1       1       6       1       6       6       1
       1       1       6       6       1       6       6       1       6       6
       1       6       6       1       6       1       1       1       6       6
       6       6       6       1       6       6       6       6       6       1
       1       6       1       6       6       1       1       1       6       6
       1       6       6       1       6       6       1       6       6       1
       6       1       1       1       6       6       6       6       6       1
       6       6       6       6       6       1       1       6       1       6
       6       1       1       1       6       6       1       6       6       1
       6       6       1       6       6       1       6       1       1       1
       6       6       6       6       6       1       6       6       6       6
       6       1       1       6       1       6       6       1       1       1
       6       6       1       6       6       1       6       6       1       6
       6       1       6       1       1       1       6       6       6       6
       6       1       6       6       6       6       6       1       1       6
       1       6       6       1       1       1       6       6       1       6
       6       1       6       6       1       6       6       1       6       1
       1       1       6       6       6       6       6       1       6       6
       6       6       6       1       1       6       1       6       6       1
       1       1       6       6       1       6       6       1       6       6
       1       6       6       1       6       1       1       1       6       6
       6       6       6       1       6       6       6       6       6       1
       1       6       1       6       6       1       1       1       6       6
       1       6       6       1       6       6       1       6       6       1
       6       1       1       1       6       6       6       6       6       1
       6       6       6       6       6       1       1       6       1       6
       6       1       1       1       6       6       1       6       6       1
       6       6       1       6       6       1       6       1       1       1
       6       6       6       6       6       1       6       6       6       6
       6       1       1       6       1       6       6       1       1       1
       6       6       1       6       6       1       6       6       1       6
       6       1       6       1       1       1       6       6       6       6
       6       1       6       6       6       6       6       1       1       6
       1       6       6       1       1       1       6       6       1       6
       6       1       6       6       1       6       6       1       6       1
       1       1       6       6       6       6       6       1       6       6
       6       6       6       1       1       6       1       6       6       1
       1       1       6       6       1       6       6       1       6       6
       1       6       6       1       6       1       1       1       6       6
       6       6       6       1       6       6       6       6       6       1
       1       6       1       6       6       1       1       1       6       6
       1       6       6       1       6       6       1       6       6       1
       6       1       1       1       6       6       6       6       6       1
       6       6       6       6       6       1       1       6       1       6
       6       1       1       1       6       6       1       6       6       1
       6       6       1       6       6       1       6       1       1       1
       6       6       6       6       6       1       6       6       6       6
       6       1       1       6       1       6       6       1       1       1
       6       6       1       6       6       1       6       6       1       6
       6       1       6       1       1       1       6       6       6       6
       6       1       6       6       6       6       6       1       1       6
       1       6       6       1       1       1       6       6       1       6
       6       1       6       6       1       6       6       1       6       1
       1       1       6       6       6       6       6       1       6       6
       6       6       6       1       1       6       1       6       6       1
       1       1       6       6       1       6       6       1       6       6
       1       6       6       1       6       1       1       1       6       6
       6       6       6       1       6       6       6       6       6       1
       1       6       1       6       6       1       1       1       6       6
       1       6       6       1       6       6       1       6       6       1
       6       1       1       1       6       6       6       6       6       1
       6       6       6       6       6       1       1       6       1       6
       6       1       1       1       6       6       1       6       6       1
       6       6       1       6       6       1       6       1       1       1
       6       6       6       6       6       1       6       6       6       6
       6       1       1       6       1       6       6       1       1       1
       6       6       1       6       6       1       6       6       1       6
       6       1       6       1       1       1       6       6       6       6
       6       1       6       6       6       6       6       1       1       6
       1       6       6       1       1       1       6       6       1       6
       6       1       6       6       1       6       6       1       6       1
       1       1       6       6       6       6       6       1       6       6
       6       6       6       1       1       6       1       6       6       1
       1       1       6       6       1       6       6       1       6       6
       1       6       6       1       6       1       1       1       6       6
       6       6       6       1       6       6       6       6       6       1
       1       6       1       6       6       1       1       1       6       6
       1       6       6       1       6       6       1       6       6       1
       6       1       1       1       6       6       6       6       6       1
       6       6       6       6       6       1       1       6       1       6
       6       1       1       1       6       6       1       6       6       1
       6       6       1       6       6       1       6       1       1       1
       6       6       6       6       6       1       6       6       6       6
       6       1       1       6       1       6       6       1       1       1
       6       6       1       6       6       1       6       6       1       6
       6       1       6       1       1       1       6       6       6       6
       6       1       6       6       6       6       6       1       1       6
       1       6       6       1       1       1       6       6       1       6
       6       1       6       6       1       6       6       1       6       1
       1       1       6       6       6       6       6       1       6       6
       6       6       6       1       1       6       1       6       6       1
       1       1       6       6       1       6       6       1       6       6
       1       6       6       1       6       1       1       1       6       6
       6       6       6       1       6       6       6       6       6       1
       1       6       1       6       6       1       1       1       6       6
       1       6       6       1       6       6       1       6       6       1
       6       1       1       1       6       6       6       6       6       1
       6       6       6       6       6       1       1       6       1       6
       6       1       1       1       6       6       1       6       6       1
       6       6       1       6       6       1       6       1       1       1
       6       6       6       6       6       1       6       6       6       6
       6       1       1       6       1       6       6       1       1       1
       6       6       1       6       6       1       6       6       1       6
       6       1       6       1       1       1       6       6       6       6
       6       1       6       6       6       6       6       1       1       6
       1       6       6       1       1       1       6       6       1       6
       6       1       6       6       1       6       6       1       6       1
       1       1       6       6       6       6       6       1       6       6
       6       6       6       1       1       6       1       6       6       1
       1       1       6       6       1       6       6       1       6       6
       1       6       6       1       6       1       1       1       6       6
       6       6       6       1       6       6       6       6       6       1
       1       6       1       6       6       1       1       1       6       6
       1       6       6       1       6       6       1       6       6       1
       6       1       1       1       6       6       6       6       6       1
       6       6       6       6       6       1       1       6       1       6
       6       1       1       1       6       6       1       6       6       1
       6       6       1       6       6       1       6       1       1       1
       6       6       6       6       6       1       6       6       6       6
       6       1       1       6       1       6       6       1       1       1
       6       6       1       6       6       1       6       6       1       6
       6       1       6       1       1       1       6       6       6       6
       6       1       6       6       6       6       6       1       1       6
       1       6       6       1       1       1       6       6       1       6
       6       1       6       6       1       6       6       1       6       1
       1       1       6       6       6       6       6       1       6       6
       6       6       6       1       1       6       1       6       6       1
       1       1       6       6       1       6       6       1       6       6
       1       6       6       1       6       1       1       1       6       6
       6       6       6       1       6       6       6       6       6       1
       1       6       1       6       6       1       1       1       6       6
       1       6       6       1       6       6       1       6       6       1
       6       1       1       1       6       6       6       6       6       1
       6       6       6       6       6       1       1       6       1       6
       6       1       1       1       6       6       1       6       6       1
       6       6       1       6       6       1       6       1       1       1
       6       6       6       6       6       1       6       6       6       6
       6       1       1       6       1       6       6       1       1       1
       6       6       1       6       6       1       6       6       1       6
       6       1       6       1       1       1       6       6       6       6
       6       1       6       6       6       6       6       1       1       6
       1       6       6       1       1       1       6       6       1       6
       6       1       6       6       1       6       6       1       6       1
       1       1       6       6       6       6       6       1       6       6
       6       6       6       1       1       6       1       6       6       1
       1       1       6       6       1       6       6       1       6       6
       1       6       6       1       6       1       1       1       6       6
       6       6       6       1       6       6       6       6       6       1
       1       6       1       6       6       1       1       1       6       6
       1       6       6       1       6       6       1       6       6       1
       6       1       1       1       6       6       6       6       6       1
       6       6       6       6       6       1       1       6       1       6
       6       1       1       1       6       6       1       6       6       1
       6       6       1       6       6       1       6       1       1       1
       6       6       6       6       6       1       6       6       6       6
       6       1       1       6       1       6       6       1       1       1
       6       6       1       6       6       1       6       6       1       6
       6       1       6       1       1       1       6       6       6       6
       6       1       6       6       6       6       6       1       1       6
       1       6       6       1       1       1       6       6       1       6
       6       1       6       6       1       6       6       1       6       1
       1       1       6       6       6       6       6       1       6       6
       6       6       6       1       1       6       1       6       6       1
       1       1       6       6       1       6       6       1       6       6
       1       6       6       1       6       1       1       1       6       6
       6       6       6       1       6       6       6       6       6       1
       1       6       1       6       6       1       1       1       6       6
       1       6       6       1       6       6       1       6       6       1
       6       1       1       1       6       6       6       6       6       1
       6       6       6       6       6       1       1       6       1       6
       6       1       1       1       6       6       1       6       6       1
       6       6       1       6       6       1       6       1       1       1
       6       6       6       6       6       1       6       6       6       6
       6       1       1       6       1       6       6       1       1       1
       6       6       1       6       6       1       6       6       1       6
       6       1       6       1       1       1       6       6       6       6
       6       1       6       6       6       6       6       1       1       6
       1       6       6       1       1       1       6       6       1       6
       6       1       6       6       1       6       6       1       6       1
       1       1       6       6       6       6       6       1       6       6
       6       6       6       1       1       6       1       6       6       1
       1       1       6       6       1       6       6       1       6       6
       1       6       6       1       6       1       1       1       6       6
       6       6       6       1       6       6       6       6       6       1
       1       6       1       6       6       1       1       1       6       6
       1       6       6       1       6       6       1       6       6       1
       6       1       1       1       6       6       6       6       6       1
       6       6       6       6       6       1       1       6       1       6
       6       1       1       1       6       6       1       6       6       1
       6       6       1       6       6       1       6       1       1       1
       6       6       6       6       6       1       6       6       6       6
       6       1       1       6       1       6       6       1       1       1
       6       6       1       6       6       1       6       6       1       6
       6       1       6       1       1       1       6       6       6       6
       6       1       6       6       6       6       6       1       1       6
       1       6       6       1       1       1       6       6       1       6
       6       1       6       6       1       6       6       1       6       1
       1       1       6       6       6       6       6       1       6       6
       6       6       6       1       1       6       1       6       6       1
       1       1       6       6       1       6       6       1       6       6
       1       6       6       1       6       1       1       1       6       6
       6       6       6       1       6       6       6       6       6       1
       1       6       1       6       6       1       1       1       6       6
       1       6       6       1       6       6       1       6       6       1
       6       1       1       1       6       6       6       6       6       1
       6       6       6       6       6       1       1       6       1       6
       6       1       1       1       6       6       1       6       6       1
       6       6       1       6       6       1       6       1       1       1
       6       6       6       6       6       1       6       6       6       6
       6       1       1       6       1       6       6       1       1       1
       6       6       1       6       6       1       6       6       1       6
       6       1       6       1       1       1       6       6       6       6
       6       1       6       6       6       6       6       1       1       6
       1       6       6       1       1       1       6       6       1       6
       6       1       6       6       1       6       6       1       6       1
       1       1       6       6       6       6       6       1       6       6
       6       6       6       1       1       6       1       6       6       1
       1       1       6       6       1       6       6       1       6       6
       1       6       6       1       6       1       1       1       6       6
       6       6       6       1       6       6       6       6       6       1
       1       6       1       6       6       1       1       1       6       6
       1       6       6       1       6       6       1       6       6       1
       6       1       1       1       6       6       6       6       6       1
       6       6       6       6       6       1       1       6       1       6
       6       1       1       1       6       6       1       6       6       1
       6       6       1       6       6       1       6       1       1       1
       6       6       6       6       6       1       6       6       6       6
       6       1       1       6       1       6       6       1       1       1
       6       6       1       6       6       1       6       6       1       6
       6       1       6       1       1       1       6       6       6       6
       6       1       6       6       6       6       6       1       1       6
       1       6       6       1       1       1       6       6       1       6
       6       1       6       6       1       6       6       1       6       1
       1       1       6       6       6       6       6       1       6       6
       6       6       6       1       1       6       1       6       6       1
       1       1       6       6       1       6       6       1       6       6
       1       6       6       1       6       1       1       1       6       6
       6       6       6       1       6       6       6       6       6       1
       1       6       1       6       6       1       1       1       6       6
       1       6       6       1       6       6       1       6       6       1
       6       1       1       1       6       6       6       6       6       1
       6       6       6       6       6       1       1       6       1       6
       6       1       1       1       6       6       1       6       6       1
       6       6       1       6       6       1       6       1       1       1
       6       6       6       6       6       1       6       6       6       6
       6       1       1       6       1       6       6       1       1       1
       6       6       1       6       6       1       6       6       1       6
       6       1       6       1       1       1       6       6       6       6
       6       1       6       6       6       6       6       1       1       6
       1       6       6       1       1       1       6       6       1       6
       6       1       6       6       1       6       6       1       6       1
       1       1       6       6       6       6       6       1       6       6
       6       6       6       1       1       6       1       6       6       1
       1       1       6       6       1       6       6       1       6       6
       1       6       6       1       6       1       1       1       6       6
       6       6       6       1       6       6       6       6       6       1
       1       6       1       6       6       1       1       1       6       6
       1       6       6       1       6       6       1       6       6       1
       6       1       1       1       6       6       6       6       6       1
       6       6       6       6       6       1       1       6       1       6
       6       1       1       1       6       6       1       6       6       1
       6       6       1       6       6       1       6       1       1       1
       6       6       6       6       6       1       6       6       6       6
       6       1       1       6       1       6       6       1       1       1
       6       6       1       6       6       1       6       6       1       6
       6       1       6       1       1       1       6       6       6       6
       6       1       6       6       6       6       6       1       1       6
       1       6       6       1       1       1       6       6       1       6
       6       1       6       6       1       6       6       1       6       1
       1       1       6       6       6       6       6       1       6       6
       6       6       6       1       1       6       1       6       6       1
       1       1       6       6       1       6       6       1       6       6
       1       6       6       1       6       1       1       1       6       6
       6       6       6       1       6       6       6       6       6       1
       1       6       1       6       6       1       1       1       6       6
       1       6       6       1       6       6       1       6       6       1
       6       1       1       1       6       6       6       6       6       1
       6       6       6       6       6       1       1       6       1       6
       6       1       1       1       6       6       1       6       6       1
       6       6       1       6       6       1       6       1       1       1
       6       6       6       6       6       1       6       6       6       6
       6       1       1       6       1       6       6       1       1       1
       6       6       1       6       6       1       6       6       1       6
       6       1       6       1       1       1       6       6       6       6
       6       1       6       6       6       6       6       1       1       6
       1       6       6       1       1       1       6       6       1       6
       6       1       6       6       1       6       6       1       6       1
       1       1       6       6       6       6       6       1       6       6
       6       6       6       1       1       6       1       6       6       1
       1       1       6       6       1       6       6       1       6       6
       1       6       6       1       6       1       1       1       6       6
       6       6       6       1       6       6       6       6       6       1
       1       6       1       6       6       1       1       1       6       6
       1       6       6       1       6       6       1       6       6       1
       6       1       1       1       6       6       6       6       6       1
       6       6       6       6       6       1       1       6       1       6
       6       1       1       1       6       6       1       6       6       1
       6       6       1       6       6       1       6       1       1       1
       6       6       6       6       6       1       6       6       6       6
       6       1       1       6       1       6       6       1       1       1
       6       6       1       6       6       1       6       6       1       6
       6       1       6       1       1       1       6       6       6       6
       6       1       6       6       6       6       6       1       1       6
       1       6       6       1       1       1       6       6       1       6
       6       1       6       6       1       6       6       1       6       1
       1       1       6       6       6       6       6       1       6       6
       6       6       6       1       1       6       1       6       6       1
       1       1       6       6       1       6       6       1       6       6
       1       6       6       1       6       1       1       1       6       6
       6       6       6       1       6       6       6       6       6       1
       1       6       1       6       6       1       1       1       6       6
       1       6       6       1       6       6       1       6       6       1
       6       1       1       1       6       6       6       6       6       1
       6       6       6       6       6       1       1       6       1       6
       6       1       1       1       6       6       1       6       6       1
       6       6       1       6       6       1       6       1       1       1
       6       6       6       6       6       1       6       6       6       6
       6       1       1       6       1       6       6       1       1       1
       6       6       1       6       6       1       6       6       1       6
       6       1       6       1       1       1       6       6       6       6
       6       1       6       6       6       6       6       1       1       6
       1       6       6       1       1       1       6       6       1       6
       6       1       6       6       1       6       6       1       6       1
       1       1       6       6       6       6       6       1       6       6
       6       6       6       1       1       6       1       6       6       1
       1       1       6       6       1       6       6       1       6       6
       1       6       6       1       6       1       1       1       6       6
       6       6       6       1       6       6       6       6       6       1
       1       6       1       6       6       1       1       1       6       6
       1       6       6       1       6       6       1       6       6       1
       6       1       1       1       6       6       6       6       6       1
       6       6       6       6       6       1       1       6       1       6
       6       1       1       1       6       6       1       6       6       1
       6       6       1       6       6       1       6       1       1       1
       6       6       6       6       6       1       6       6       6       6
       6       1       1       6       1       6       6       1       1       1
       6       6       1       6       6       1       6       6       1       6
       6       1       6       1       1       1       6       6       6       6
       6       1       6       6       6       6       6       1       1       6
       1       6       6       1       1       1       6       6       1       6
       6       1       6       6       1       6       6       1       6       1
       1       1       6       6       6       6       6       1       6       6
       6       6       6       1       1       6       1       6       6       1
       1       1       6       6       1       6       6       1       6       6
       1       6       6       1       6       1       1       1       6       6
       6       6       6       1       6       6       6       6       6       1
       1       6       1       6       6       1       1       1       6       6
       1       6       6       1       6       6       1       6       6       1
       6       1       1       1       6       6       6       6       6       1
       6       6       6       6       6       1       1       6       1       6
       6       1       1       1       6       6       1       6       6       1
       6       6       1       6       6       1       6       1       1       1
       6       6       6       6       6       1       6       6       6       6
       6       1       1       6       1       6       6       1       1       1
       6       6       1       6       6       1       6       6       1       6
       6       1       6       1       1       1       6       6       6       6
       6       1       6       6       6       6       6       1       1       6
       1       6       6       1       1       1       6       6       1       6
       6       1       6       6       1       6       6       1       6       1
       1       1       6       6       6       6       6       1       6       6
       6       6       6       1       1       6       1       6       6       1
       1       1       6       6       1       6       6       1       6       6
       1       6       6       1       6       1       1       1       6       6
       6       6       6       1       6       6       6       6       6       1
       1       6       1       6       6       1       1       1       6       6
       1       6       6       1       6       6       1       6       6       1
       6       1       1       1       6       6       6       6       6       1
       6       6       6       6       6       1       1       6       1       6
       6       1       1       1       6       6       1       6       6       1
       6       6       1       6       6       1       6       1       1       1
       6       6       6       6       6       1       6       6       6       6
       6       1       1       6       1       6       6       1       1       1
       6       6       1       6       6       1       6       6       1       6
       6       1       6       1       1       1       6       6       6       6
       6       1       6       6       6       6       6       1       1       6
       1       6       6       1       1       1       6       6       1       6
       6       1       6       6       1       6       6       1       6       1
       1       1       6       6       6       6       6       1       6       6
       6       6       6       1       1       6       1       6       6       1
       1       1       6       6       1       6       6       1       6       6
       1       6       6       1       6       1       1       1       6       6
       6       6       6       1       6       6       6       6       6       1
       1       6       1       6       6       1       1       1       6       6
       1       6       6       1       6       6       1       6       6       1
       6       1       1       1       6       6       6       6       6       1
       6       6       6       6       6       1       1       6       1       6
       6       1       1       1       6       6       1       6       6       1
       6       6       1       6       6       1       6       1       1       1
       6       6       6       6       6       1       6       6       6       6
       6       1       1       6       1       6       6       1       1       1
       6       6       1       6       6       1       6       6       1       6
       6       1       6       1       1       1       6       6       6       6
       6       1       6       6       6       6       6       1       1       6
       1       6       6       1       1       1       6       6       1       6
       6       1       6       6       1       6       6       1       6       1
       1       1       6       6       6       6       6       1       6       6
       6       6       6       1       1       6       1       6       6       1
       1       1       6       6       1       6       6       1       6       6
       1       6       6       1       6       1       1       1       6       6
       6       6       6       1       6       6       6       6       6       1
       1       6       1       6       6       1       1       1       6       6
       1       6       6       1       6       6       1       6       6       1
       6       1       1       1       6       6       6       6       6       1
       6       6       6       6       6       1       1       6       1       6
       6       1       1       1       6       6       1       6       6       1
       6       6       1       6       6       1       6       1       1       1
       6       6       6       6       6       1       6       6       6       6
       6       1       1       6       1       6       6       1       1       1
       6       6       1       6       6       1       6       6       1       6
       6       1       6       1       1       1       6       6       6       6
       6       1       6       6       6       6       6       1       1       6
       1       6       6       1       1       1       6       6       1       6
       6       1       6       6       1       6       6       1       6       1
       1       1       6       6       6       6       6       1       6       6
       6       6       6       1       1       6       1       6       6       1
       1       1       6       6       1       6       6       1       6       6
       1       6       6       1       6       1       1       1       6       6
       6       6       6       1       6       6       6       6       6       1
       1       6       1       6       6       1       1       1       6       6
       1       6       6       1       6       6       1       6       6       1
       6       1       1       1       6       6       6       6       6       1
       6       6       6       6       6       1       1       6       1       6
       6       1       1       1       6       6       1       6       6       1
       6       6       1       6       6       1       6       1       1       1
       6       6       6       6       6       1       6       6       6       6
       6       1       1       6       1       6       6       1       1       1
       6       6       1       6       6       1       6       6       1       6
       6       1       6       1       1       1       6       6       6       6
       6       1       6       6       6       6       6       1       1       6
       1       6       6       1       1       1       6       6       1       6
       6       1       6       6       1       6       6       1       6       1
       1       1       6       6       6       6       6       1       6       6
       6       6       6       1       1       6       1       6       6       1
       1       1       6       6       1       6       6       1       6       6
       1       6       6       1       6       1       1       1       6       6
       6       6       6       1       6       6       6       6       6       1
       1       6       1       6       6       1       1       1       6       6
       1       6       6       1       6       6       1       6       6       1
       6       1       1       1       6       6       6       6       6       1
       6       6       6       6       6       1       1       6       1       6
       6       1       1       1       6       6       1       6       6       1
       6       6       1       6       6       1       6       1       1       1
       6       6       6       6       6       1       6       6       6       6
       6       1       1       6       1       6       6       1       1       1
       6       6       1       6       6       1       6       6       1       6
       6       1       6       1       1       1       6       6       6       6
       6       1       6       6       6       6       6       1       1       6
       1       6       6       1       1       1       6       6       1       6
       6       1       6       6       1       6       6       1       6       1
       1       1       6       6       6       6       6       1       6       6
       6       6       6       1       1       6       1       6       6       1
       1       1       6       6       1       6       6       1       6       6
       1       6       6       1       6       1       1       1       6       6
       6       6       6       1       6       6       6       6       6       1
       1       6       1       6       6       1       1       1       6       6
       1       6       6       1       6       6       1       6       6       1
       6       1       1       1       6       6       6       6       6       1
       6       6       6       6       6       1       1       6       1       6
       6       1       1       1       6       6       1       6       6       1
       6       6       1       6       6       1       6       1       1       1
       6       6       6       6       6       1       6       6       6       6
       6       1       1       6       1       6       6       1       1       1
       6       6       1       6       6       1       6       6       1       6
       6       1       6       1       1       1       6       6       6       6
       6       1       6       6       6       6       6       1       1       6
       1       6       6       1       1       1       6       6       1       6
       6       1       6       6       1       6       6       1       6       1
       1       1       6       6       6       6       6       1       6       6
       6       6       6       1       1       6       1       6       6       1
       1       1       6       6       1       6       6       1       6       6
       1       6       6       1       6       1       1       1       6       6
       6       6       6       1       6       6       6       6       6       1
       1       6       1       6       6       1       1       1       6       6
       1       6       6       1       6       6       1       6       6       1
       6       1       1       1       6       6       6       6       6       1
       6       6       6       6       6       1       1       6       1       6
       6       1       1       1       6       6       1       6       6       1
       6       6       1       6       6       1       6       1       1       1
       6       6       6       6       6       1       6       6       6       6
       6       1       1       6       1       6       6       1       1       1
       6       6       1       6       6       1       6       6       1       6
       6       1       6       1       1       1       6       6       6       6
       6       1       6       6       6       6       6       1       1       6
       1       6       6       1       1       1       6       6       1       6
       6       1       6       6       1       6       6       1       6       1
       1       1       6       6       6       6       6       1       6       6
       6       6       6       1       1       6       1       6       6       1
       1       1       6       6       1       6       6       1       6       6
       1       6       6       1       6       1       1       1       6       6
       6       6       6       1       6       6       6       6       6       1
       1       6       1       6       6       1       1       1       6       6
       1       6       6       1       6       6       1       6       6       1
       6       1       1       1       6       6       6       6       6       1
       6       6       6       6       6       1       1       6       1       6
       6       1       1       1       6       6       1       6       6       1
       6       6       1       6       6       1       6       1       1       1
       6       6       6       6       6       1       6       6       6       6
       6       1       1       6       1       6       6       1       1       1
       6       6       1       6       6       1       6       6       1       6
       6       1       6       1       1       1       6       6       6       6
       6       1       6       6       6       6       6       1       1       6
       1       6       6       1       1       1       6       6       1       6
       6       1       6       6       1       6       6       1       6       1
       1       1       6       6       6       6       6       1       6       6
       6       6       6       1       1       6       1       6       6       1
       1       1       6       6       1       6       6       1       6       6
       1       6       6       1       6       1       1       1       6       6
       6       6       6       1       6       6       6       6       6       1
       1       6       1       6       6       1       1       1       6       6
       1       6       6       1       6       6       1       6       6       1
       6       1       1       1       6       6       6       6       6       1
       6       6       6       6       6       1       1       6       1       6
       6       1       1       1       6       6       1       6       6       1
       6       6       1       6       6       1       6       1       1       1
       6       6       6       6       6       1       6       6       6       6
       6       1       1       6       1       6       6       1       1       1
       6       6       1       6       6       1       6       6       1       6
       6       1       6       1       1       1       6       6       6       6
       6       1       6       6       6       6       6       1       1       6
       1       6       6       1       1       1       6       6       1       6
       6       1       6       6       1       6       6       1       6       1
       1       1       6       6       6       6       6       1       6       6
       6       6       6       1       1       6       1       6       6       1
       1       1       6       6       1       6       6       1       6       6
       1       6       6       1       6       1       1       1       6       6
       6       6       6       1       6       6       6       6       6       1
       1       6       1       6       6       1       1       1       6       6
       1       6       6       1       6       6       1       6       6       1
       6       1       1       1       6       6       6       6       6       1
       6       6       6       6       6       1       1       6       1       6
       6       1       1       1       6       6       1       6       6       1
       6       6       1       6       6       1       6       1       1       1
       6       6       6       6       6       1       6       6       6       6
       6       1       1       6       1       6       6       1       1       1
       6       6       1       6       6       1       6       6       1       6
       6       1       6       1       1       1       6       6       6       6
       6       1       6       6       6       6       6       1       1       6
       1       6       6       1       1       1       6       6       1       6
       6       1       6       6       1       6       6       1       6       1
       1       1       6       6       6       6       6       1       6       6
       6       6       6       1       1       6       1       6       6       1
       1       1       6       6       1       6       6       1       6       6
       1       6       6       1       6       1       1       1       6       6
       6       6       6       1       6       6       6       6       6       1
       1       6       1       6       6       1       1       1       6       6
       1       6       6       1       6       6       1       6       6       1
       6       1       1       1       6       6       6       6       6       1
       6       6       6       6       6       1       1       6       1       6
       6       1       1       1       6       6       1       6       6       1
       6       6       1       6       6       1       6       1       1       1
       6       6       6       6       6       1       6       6       6       6
       6       1       1       6       1       6       6       1       1       1
       6       6       1       6       6       1       6       6       1       6
       6       1       6       1       1       1       6       6       6       6
       6       1       6       6       6       6       6       1       1       6
       1       6       6       1       1       1       6       6       1       6
       6       1       6       6       1       6       6       1       6       1
       1       1       6       6       6       6       6       1       6       6
       6       6       6       1       1       6       1       6       6       1
       1       1       6       6       1       6       6       1       6       6
       1       6       6       1       6       1       1       1       6       6
       6       6       6       1       6       6       6       6       6       1
       1       6       1       6       6       1       1       1       6       6
       1       6       6       1       6       6       1       6       6       1
       6       1       1       1       6       6       6       6       6       1
       6       6       6       6       6       1       1       6       1       6
       6       1       1       1       6       6       1       6       6       1
       6       6       1       6       6       1       6       1       1       1
       6       6       6       6       6       1       6       6       6       6
       6       1       1       6       1       6       6       1       1       1
       6       6       1       6       6       1       6       6       1       6
       6       1       6       1       1       1       6       6       6       6
       6       1       6       6       6       6       6       1       1       6
       1       6       6       1       1       1       6       6       1       6
       6       1       6       6       1       6       6       1       6       1
       1       1       6       6       6       6       6       1       6       6
       6       6       6       1       1       6       1       6       6       1
       1       1       6       6       1       6       6       1       6       6
       1       6       6       1       6       1       1       1       6       6
       6       6       6       1       6       6       6       6       6       1
       1       6       1       6       6       1       1       1       6       6
       1       6       6       1       6       6       1       6       6       1
       6       1       1       1       6       6       6       6       6       1
       6       6       6       6       6       1       1       6       1       6
       6       1       1       1       6       6       1       6       6       1
       6       6       1       6       6       1       6       1       1       1
       6       6       6       6       6       1       6       6       6       6
       6       1       1       6       1       6       6       1       1       1
       6       6       1       6       6       1       6       6       1       6
       6       1       6       1       1       1       6       6       6       6
       6       1       6       6       6       6       6       1       1       6
       1       6       6       1       1       1       6       6       1       6
       6       1       6       6       1       6       6       1       6       1
       1       1       6       6       6       6       6       1       6       6
       6       6       6       1       1       6       1       6       6       1
       1       1       6       6       1       6       6       1       6       6
       1       6       6       1       6       1       1       1       6       6
       6       6       6       1       6       6       6       6       6       1
       1       6       1       6       6       1       1       1       6       6
       1       6       6       1       6       6       1       6       6       1
       6       1       1       1       6       6       6       6       6       1
       6       6       6       6       6       1       1       6       1       6
       6       1       1       1       6       6       1       6       6       1
       6       6       1       6       6       1       6       1       1       1
       6       6       6       6       6       1       6       6       6       6
       6       1       1       6       1       6       6       1       1       1
       6       6       1       6       6       1       6       6       1       6
       6       1       6       1       1       1       6       6       6       6
       6       1       6       6       6       6       6       1       1       6
       1       6       6       1       1       1       6       6       1       6
       6       1       6       6       1       6       6       1       6       1
       1       1       6       6       6       6       6       1       6       6
       6       6       6       1       1       6       1       6       6       1
       1       1       6       6       1       6       6       1       6       6
       1       6       6       1       6       1       1       1       6       6
       6       6       6       1       6       6       6       6       6       1
       1       6       1       6       6       1       1       1       6       6
       1       6       6       1       6       6       1       6       6       1
       6       1       1       1       6       6       6       6       6       1
       6       6       6       6       6       1       1       6       1       6
       6       1       1       1       6       6       1       6       6       1
       6       6       1       6       6       1       6       1       1       1
       6       6       6       6       6       1       6       6       6       6
       6       1       1       6       1       6       6       1       1       1
       6       6       1       6       6       1       6       6       1       6
       6       1       6       1       1       1       6       6       6       6
       6       1       6       6       6       6       6       1       1       6
       1       6       6       1       1       1       6       6       1       6
       6       1       6       6       1       6       6       1       6       1
       1       1       6       6       6       6       6       1       6       6
       6       6       6       1       1       6       1       6       6       1
       1       1       6       6       1       6       6       1       6       6
       1       6       6       1       6       1       1       1       6       6
       6       6       6       1       6       6       6       6       6       1
       1       6       1       6       6       1       1       1       6       6
       1       6       6       1       6       6       1       6       6       1
       6       1       1       1       6       6       6       6       6       1
       6       6       6       6       6       1       1       6       1       6
       6       1       1       1       6       6       1       6       6       1
       6       6       1       6       6       1       6       1       1       1
       6       6       6       6       6       1       6       6       6       6
       6       1       1       6       1       6       6       1       1       1
       6       6       1       6       6       1       6       6       1       6
       6       1       6       1       1       1       6       6       6       6
       6       1       6       6       6       6       6       1       1       6
       1       6       6       1       1       1       6       6       1       6
       6       1       6       6       1       6       6       1       6       1
       1       1       6       6       6       6       6       1       6       6
       6       6       6       1       1       6       1       6       6       1
       1       1       6       6       1       6       6       1       6       6
       1       6       6       1       6       1       1       1       6       6
       6       6       6       1       6       6       6       6       6       1
       1       6       1       6       6       1       1       1       6       6
       1       6       6       1       6       6       1       6       6       1
       6       1       1       1       6       6       6       6       6       1
       6       6       6       6       6       1       1       6       1       6
       6       1       1       1       6       6       1       6       6       1
       6       6       1       6       6       1       6       1       1       1
       6       6       6       6       6       1       6       6       6       6
       6       1       1       6       1       6       6       1       1       1
       6       6       1       6       6       1       6       6       1       6
       6       1       6       1       1       1       6       6       6       6
       6       1       6       6       6       6       6       1       1       6
       1       6       6       1       1       1       6       6       1       6
       6       1       6       6       1       6       6       1       6       1
       1       1       6       6       6       6       6       1       6       6
       6       6       6       1       1       6       1       6       6       1
       1       1       6       6       1       6       6       1       6       6
       1       6       6       1       6       1       1       1       6       6
       6       6       6       1       6       6       6       6       6       1
       1       6       1       6       6       1       1       1       6       6
       1       6       6       1       6       6       1       6       6       1
       6       1       1       1       6       6       6       6       6       1
       6       6       6       6       6       1       1       6       1       6
       6       1       1       1       6       6       1       6       6       1
       6       6       1       6       6       1       6       1       1       1
       6       6       6       6       6       1       6       6       6       6
       6       1       1       6       1       6       6       1       1       1
       6       6       1       6       6       1       6       6       1       6
       6       1       6       1       1       1       6       6       6       6
       6       1       6       6       6       6       6       1       1       6
       1       6       6       1       1       1       6       6       1       6
       6       1       6       6       1       6       6       1       6       1
       1       1       6       6       6       6       6       1       6       6
       6       6       6       1       1       6       1       6       6       1
       1       1       6       6       1       6       6       1       6       6
       1       6       6       1       6       1       1       1       6       6
       6       6       6       1       6       6       6       6       6       1
       1       6       1       6       6       1       1       1       6       6
       1       6       6       1       6       6       1       6       6       1
       6       1       1       1       6       6       6       6       6       1
       6       6       6       6       6       1       1       6       1       6
       6       1       1       1       6       6       1       6       6       1
       6       6       1       6       6       1       6       1       1       1
       6       6       6       6       6       1       6       6       6       6
       6       1       1       6       1       6       6       1       1       1
       6       6       1       6       6       1       6       6       1       6
       6       1       6       1       1       1       6       6       6       6
       6       1       6       6       6       6       6       1       1       6
       1       6       6       1       1       1       6       6       1       6
       6       1       6       6       1       6       6       1       6       1
       1       1       6       6       6       6       6       1       6       6
       6       6       6       1       1       6       1       6       6       1
       1       1       6       6       1       6       6       1       6       6
       1       6       6       1       6       1       1       1       6       6
       6       6       6       1       6       6       6       6       6       1
       1       6       1       6       6       1       1       1       6       6
       1       6       6       1       6       6       1       6       6       1
       6       1       1       1       6       6       6       6       6       1
       6       6       6       6       6       1       1       6       1       6
       6       1       1       1       6       6       1       6       6       1
       6       6       1       6       6       1       6       1       1       1
       6       6       6       6       6       1       6       6       6       6
       6       1       1       6       1       6       6       1       1       1
       6       6       1       6       6       1       6       6       1       6
       6       1       6       1       1       1       6       6       6       6
       6       1       6       6       6       6       6       1       1       6
       1       6       6       1       1       1       6       6       1       6
       6       1       6       6       1       6       6       1       6       1
       1       1       6       6       6       6       6       1       6       6
       6       6       6       1       1       6       1       6       6       1
       1       1       6       6       1       6       6       1       6       6
       1       6       6       1       6       1       1       1       6       6
       6       6       6       1       6       6       6       6       6       1
       1       6       1       6       6       1       1       1       6       6
       1       6       6       1       6       6       1       6       6       1
       6       1       1       1       6       6       6       6       6       1
       6       6       6       6       6       1       1       6       1       6
       6       1       1       1       6       6       1       6       6       1
       6       6       1       6       6       1       6       1       1       1
       6       6       6       6       6       1       6       6       6       6
       6       1       1       6       1       6       6       1       1       1
       6       6       1       6       6       1       6       6       1       6
       6       1       6       1       1       1       6       6       6       6
       6       1       6       6       6       6       6       1       1       6
       1       6       6       1       1       1       6       6       1       6
       6       1       6       6       1       6       6       1       6       1
       1       1       6       6       6       6       6       1       6       6
       6       6       6       1       1       6       1       6       6       1
       1       1       6       6       1       6       6       1       6       6
       1       6       6       1       6       1       1       1       6       6
       6       6       6       1       6       6       6       6       6       1
       1       6       1       6       6       1       1       1       6       6
       1       6       6       1       6       6       1       6       6       1
       6       1       1       1       6       6       6       6       6       1
       6       6       6       6       6       1       1       6       1       6
       6       1       1       1       6       6       1       6       6       1
       6       6       1       6       6       1       6       1       1       1
       6       6       6       6       6       1       6       6       6       6
       6       1       1       6       1       6       6       1       1       1
       6       6       1       6       6       1       6       6       1       6
       6       1       6       1       1       1       6       6       6       6
       6       1       6       6       6       6       6       1       1       6
       1       6       6       1       1       1       6       6       1       6
       6       1       6       6       1       6       6       1       6       1
       1       1       6       6       6       6       6       1       6       6
       6       6       6       1       1       6       1       6       6       1
       1       1       6       6       1       6       6       1       6       6
       1       6       6       1       6       1       1       1       6       6
       6       6       6       1       6       6       6       6       6       1
       1       6       1       6       6       1       1       1       6       6
       1       6       6       1       6       6       1       6       6       1
       6       1       1       1       6       6       6       6       6       1
       6       6       6       6       6       1       1       6       1       6
       6       1       1       1       6       6       1       6       6       1
       6       6       1       6       6       1       6       1       1       1
%FLAG MASS
%FORMAT(5E16.8)
  1.20100000E+01  1.20100000E+01  1.20100000E+01  1.20100000E+01  1.20100000E+01
  1.00800000E+00  1.20100000E+01  1.20100000E+01  1.20100000E+01  1.20100000E+01
  1.20100000E+01  1.00800000E+00  1.00800000E+00  1.20100000E+01  1.00800000E+00
  1.20100000E+01  1.20100000E+01  1.00800000E+00  1.00800000E+00  1.00800000E+00
  1.20100000E+01  1.20100000E+01  1.00800000E+00  1.20100000E+01  1.20100000E+01
  1.00800000E+00  1.20100000E+01  1.20100000E+01  1.00800000E+00  1.20100000E+01
  1.20100000E+01  1.00800000E+00  1.20100000E+01  1.00800000E+00  1.00800000E+00
  1.00800000E+00  1.20100000E+01  1.20100000E+01  1.20100000E+01  1.20100000E+01
  1.20100000E+01  1.00800000E+00  1.20100000E+01  1.20100000E+01  1.20100000E+01
  1.20100000E+01  1.20100000E+01  1.00800000E+00  1.00800000E+00  1.20100000E+01
  1.00800000E+00  1.20100000E+01  1.20100000E+01  1.00800000E+00  1.00800000E+00
  1.00800000E+00  1.20100000E+01  1.20100000E+01  1.00800000E+00  1.20100000E+01
  1.20100000E+01  1.00800000E+00  1.20100000E+01  1.20100000E+01  1.00800000E+00
  1.20100000E+01  1.20100000E+01  1.00800000E+00  1.20100000E+01  1.00800000E+00
  1.00800000E+00  1.00800000E+00  1.20100000E+01  1.20100000E+01  1.20100000E+01
  1.20100000E+01  1.20100000E+01  1.00800000E+00  1.20100000E+01  1.20100000E+01
  1.20100000E+01  1.20100000E+01  1.20100000E+01  1.00800000E+00  1.00800000E+00
  1.20100000E+01  1.00800000E+00  1.20100000E+01  1.20100000E+01  1.00800000E+00
  1.00800000E+00  1.00800000E+00  1.20100000E+01  1.20100000E+01  1.00800000E+00
  1.20100000E+01  1.20100000E+01  1.00800000E+00  1.20100000E+01  1.20100000E+01
  1.00800000E+00  1.20100000E+01  1.20100000E+01  1.00800000E+00  1.20100000E+01
  1.00800000E+00  1.00800000E+00  1.00800000E+00  1.20100000E+01  1.20100000E+01
  1.20100000E+01  1.20100000E+01  1.20100000E+01  1.00800000E+00  1.20100000E+01
  1.20100000E+01  1.20100000E+01  1.20100000E+01  1.20100000E+01  1.00800000E+00
  1.00800000E+00  1.20100000E+01  1.00800000E+00  1.20100000E+01  1.20100000E+01
  1.00800000E+00  1.00800000E+00  1.00800000E+00  1.20100000E+01  1.20100000E+01
  1.00800000E+00  1.20100000E+01  1.20100000E+01  1.00800000E+00  1.20100000E+01
  1.20100000E+01  1.00800000E+00  1.20100000E+01  1.20100000E+01  1.00800000E+00
  1.20100000E+01  1.00800000E+00  1.00800000E+00  1.00800000E+00  1.20100000E+01
  1.20100000E+01  1.20100000E+01  1.20100000E+01  1.20100000E+01  1.00800000E+00
  1.20100000E+01  1.20100000E+01  1.20100000E+01  1.20100000E+01  1.20100000E+01
  1.00800000E+00  1.00800000E+00  1.20100000E+01  1.00800000E+00  1.20100000E+01
  1.20100000E+01  1.00800000E+00  1.00800000E+00  1.00800000E+00  1.20100000E+01
  1.20100000E+01  1.00800000E+00  1.20100000E+01  1.20100000E+01  1.00800000E+00
  1.20100000E+01  1.20100000E+01  1.00800000E+00  1.20100000E+01  1.20100000E+01
  1.00800000E+00  1.20100000E+01  1.00800000E+00  1.00800000E+00  1.00800000E+00
  1.20100000E+01  1.20100000E+01  1.20100000E+01  1.20100000E+01  1.20100000E+01
  1.00800000E+00  1.20100000E+01  1.20100000E+01  1.20100000E+01  1.20100000E+01
  1.20100000E+01  1.00800000E+00  1.00800000E+00  1.20100000E+01  1.00800000E+00
  1.20100000E+01  1.20100000E+01  1.00800000E+00  1.00800000E+00  1.00800000E+00
  1.20100000E+01  1.20100000E+01  1.00800000E+00  1.20100000E+01  1.20100000E+01
  1.00800000E+00  1.20100000E+01  1.20100000E+01  1.00800000E+00  1.20100000E+01
  1.20100000E+01  1.00800000E+00  1.20100000E+01  1.00800000E+00  1.00800000E+00
  1.00800000E+00  1.20100000E+01  1.20100000E+01  1.20100000E+01  1.20100000E+01
  1.20100000E+01  1.00800000E+00  1.20100000E+01  1.20100000E+01  1.20100000E+01
  1.20100000E+01  1.20100000E+01  1.00800000E+00  1.00800000E+00  1.20100000E+01
  1.00800000E+00  1.20100000E+01  1.20100000E+01  1.00800000E+00  1.00800000E+00
  1.00800000E+00  1.20100000E+01  1.20100000E+01  1.00800000E+00  1.20100000E+01
  1.20100000E+01  1.00800000E+00  1.20100000E+01  1.20100000E+01  1.00800000E+00
  1.20100000E+01  1.20100000E+01  1.00800000E+00  1.20100000E+01  1.00800000E+00
  1.00800000E+00  1.00800000E+00  1.20100000E+01  1.20100000E+01  1.20100000E+01
  1.20100000E+01  1.20100000E+01  1.00800000E+00  1.20100000E+01  1.20100000E+01
  1.20100000E+01  1.20100000E+01  1.20100000E+01  1.00800000E+00  1.00800000E+00
  1.20100000E+01  1.00800000E+00  1.20100000E+01  1.20100000E+01  1.00800000E+00
  1.00800000E+00  1.00800000E+00  1.20100000E+01  1.20100000E+01  1.00800000E+00
  1.20100000E+01  1.20100000E+01  1.00800000E+00  1.20100000E+01  1.20100000E+01
  1.00800000E+00  1.20100000E+01  1.20100000E+01  1.00800000E+00  1.20100000E+01
  1.00800000E+00  1.00800000E+00  1.00800000E+00  1.20100000E+01  1.20100000E+01
  1.20100000E+01  1.20100000E+01  1.20100000E+01  1.00800000E+00  1.20100000E+01
  1.20100000E+01  1.20100000E+01  1.20100000E+01  1.20100000E+01  1.00800000E+00
  1.00800000E+00  1.20100000E+01  1.00800000E+00  1.20100000E+01  1.20100000E+01
  1.00800000E+00  1.00800000E+00  1.00800000E+00  1.20100000E+01  1.20100000E+01
  1.00800000E+00  1.20100000E+01  1.20100000E+01  1.00800000E+00  1.20100000E+01
  1.20100000E+01  1.00800000E+00  1.20100000E+01  1.20100000E+01  1.00800000E+00
  1.20100000E+01  1.00800000E+00  1.00800000E+00  1.00800000E+00  1.20100000E+01
  1.20100000E+01  1.20100000E+01  1.20100000E+01  1.20100000E+01  1.00800000E+00
  1.20100000E+01  1.20100000E+01  1.20100000E+01  1.20100000E+01  1.20100000E+01
  1.00800000E+00  1.00800000E+00  1.20100000E+01  1.00800000E+00  1.20100000E+01
  1.20100000E+01  1.00800000E+00  1.00800000E+00  1.00800000E+00  1.20100000E+01
  1.20100000E+01  1.00800000E+00  1.20100000E+01  1.20100000E+01  1.00800000E+00
  1.20100000E+01  1.20100000E+01  1.00800000E+00  1.20100000E+01  1.20100000E+01
  1.00800000E+00  1.20100000E+01  1.00800000E+00  1.00800000E+00  1.00800000E+00
  1.20100000E+01  1.20100000E+01  1.20100000E+01  1.20100000E+01  1.20100000E+01
  1.00800000E+00  1.20100000E+01  1.20100000E+01  1.20100000E+01  1.20100000E+01
  1.20100000E+01  1.00800000E+00  1.00800000E+00  1.20100000E+01  1.00800000E+00
  1.20100000E+01  1.20100000E+01  1.00800000E+00  1.00800000E+00  1.00800000E+00
  1.20100000E+01  1.20100000E+01  1.00800000E+00  1.20100000E+01  1.20100000E+01
  1.00800000E+00  1.20100000E+01  1.20100000E+01  1.00800000E+00  1.20100000E+01
  1.20100000E+01  1.00800000E+00  1.20100000E+01  1.00800000E+00  1.00800000E+00
  1.00800000E+00  1.20100000E+01  1.20100000E+01  1.20100000E+01  1.20100000E+01
  1.20100000E+01  1.00800000E+00  1.20100000E+01  1.20100000E+01  1.20100000E+01
  1.20100000E+01  1.20100000E+01  1.00800000E+00  1.00800000E+00  1.20100000E+01
  1.00800000E+00  1.20100000E+01  1.20100000E+01  1.00800000E+00  1.00800000E+00
  1.00800000E+00  1.20100000E+01  1.20100000E+01  1.00800000E+00  1.20100000E+01
  1.20100000E+01  1.00800000E+00  1.20100000E+01  1.20100000E+01  1.00800000E+00
  1.20100000E+01  1.20100000E+01  1.00800000E+00  1.20100000E+01  1.00800000E+00
  1.00800000E+00  1.00800000E+00  1.20100000E+01  1.20100000E+01  1.20100000E+01
  1.20100000E+01  1.20100000E+01  1.00800000E+00  1.20100000E+01  1.20100000E+01
  1.20100000E+01  1.20100000E+01  1.20100000E+01  1.00800000E+00  1.00800000E+00
  1.20100000E+01  1.00800000E+00  1.20100000E+01  1.20100000E+01  1.00800000E+00
  1.00800000E+00  1.00800000E+00  1.20100000E+01  1.20100000E+01  1.00800000E+00
  1.20100000E+01  1.20100000E+01  1.00800000E+00  1.20100000E+01  1.20100000E+01
  1.00800000E+00  1.20100000E+01  1.20100000E+01  1.00800000E+00  1.20100000E+01
  1.00800000E+00  1.00800000E+00  1.00800000E+00  1.20100000E+01  1.20100000E+01
  1.20100000E+01  1.20100000E+01  1.20100000E+01  1.00800000E+00  1.20100000E+01
  1.20100000E+01  1.20100000E+01  1.20100000E+01  1.20100000E+01  1.00800000E+00
  1.00800000E+00  1.20100000E+01  1.00800000E+00  1.20100000E+01  1.20100000E+01
  1.00800000E+00  1.00800000E+00  1.00800000E+00  1.20100000E+01  1.20100000E+01
  1.00800000E+00  1.20100000E+01  1.20100000E+01  1.00800000E+00  1.20100000E+01
  1.20100000E+01  1.00800000E+00  1.20100000E+01  1.20100000E+01  1.00800000E+00
  1.20100000E+01  1.00800000E+00  1.00800000E+00  1.00800000E+00  1.20100000E+01
  1.20100000E+01  1.20100000E+01  1.20100000E+01  1.20100000E+01  1.00800000E+00
  1.20100000E+01  1.20100000E+01  1.20100000E+01  1.20100000E+01  1.20100000E+01
  1.00800000E+00  1.00800000E+00  1.20100000E+01  1.00800000E+00  1.20100000E+01
  1.20100000E+01  1.00800000E+00  1.00800000E+00  1.00800000E+00  1.20100000E+01
  1.20100000E+01  1.00800000E+00  1.20100000E+01  1.20100000E+01  1.00800000E+00
  1.20100000E+01  1.20100000E+01  1.00800000E+00  1.20100000E+01  1.20100000E+01
  1.00800000E+00  1.20100000E+01  1.00800000E+00  1.00800000E+00  1.00800000E+00
  1.20100000E+01  1.20100000E+01  1.20100000E+01  1.20100000E+01  1.20100000E+01
  1.00800000E+00  1.20100000E+01  1.20100000E+01  1.20100000E+01  1.20100000E+01
  1.20100000E+01  1.00800000E+00  1.00800000E+00  1.20100000E+01  1.00800000E+00
  1.20100000E+01  1.20100000E+01  1.00800000E+00  1.00800000E+00  1.00800000E+00
  1.20100000E+01  1.20100000E+01  1.00800000E+00  1.20100000E+01  1.20100000E+01
  1.00800000E+00  1.20100000E+01  1.20100000E+01  1.00800000E+00  1.20100000E+01
  1.20100000E+01  1.00800000E+00  1.20100000E+01  1.00800000E+00  1.00800000E+00
  1.00800000E+00  1.20100000E+01  1.20100000E+01  1.20100000E+01  1.20100000E+01
  1.20100000E+01  1.00800000E+00  1.20100000E+01  1.20100000E+01  1.20100000E+01
  1.20100000E+01  1.20100000E+01  1.00800000E+00  1.00800000E+00  1.20100000E+01
  1.00800000E+00  1.20100000E+01  1.20100000E+01  1.00800000E+00  1.00800000E+00
  1.00800000E+00  1.20100000E+01  1.20100000E+01  1.00800000E+00  1.20100000E+01
  1.20100000E+01  1.00800000E+00  1.20100000E+01  1.20100000E+01  1.00800000E+00
  1.20100000E+01  1.20100000E+01  1.00800000E+00  1.20100000E+01  1.00800000E+00
  1.00800000E+00  1.00800000E+00  1.20100000E+01  1.20100000E+01  1.20100000E+01
  1.20100000E+01  1.20100000E+01  1.00800000E+00  1.20100000E+01  1.20100000E+01
  1.20100000E+01  1.20100000E+01  1.20100000E+01  1.00800000E+00  1.00800000E+00
  1.20100000E+01  1.00800000E+00  1.20100000E+01  1.20100000E+01  1.00800000E+00
  1.00800000E+00  1.00800000E+00  1.20100000E+01  1.20100000E+01  1.00800000E+00
  1.20100000E+01  1.20100000E+01  1.00800000E+00  1.20100000E+01  1.20100000E+01
  1.00800000E+00  1.20100000E+01  1.20100000E+01  1.00800000E+00  1.20100000E+01
  1.00800000E+00  1.00800000E+00  1.00800000E+00  1.20100000E+01  1.20100000E+01
  1.20100000E+01  1.20100000E+01  1.20100000E+01  1.00800000E+00  1.20100000E+01
  1.20100000E+01  1.20100000E+01  1.20100000E+01  1.20100000E+01  1.00800000E+00
  1.00800000E+00  1.20100000E+01  1.00800000E+00  1.20100000E+01  1.20100000E+01
  1.00800000E+00  1.00800000E+00  1.00800000E+00  1.20100000E+01  1.20100000E+01
  1.00800000E+00  1.20100000E+01  1.20100000E+01  1.00800000E+00  1.20100000E+01
  1.20100000E+01  1.00800000E+00  1.20100000E+01  1.20100000E+01  1.00800000E+00
  1.20100000E+01  1.00800000E+00  1.00800000E+00  1.00800000E+00  1.20100000E+01
  1.20100000E+01  1.20100000E+01  1.20100000E+01  1.20100000E+01  1.00800000E+00
  1.20100000E+01  1.20100000E+01  1.20100000E+01  1.20100000E+01  1.20100000E+01
  1.00800000E+00  1.00800000E+00  1.20100000E+01  1.00800000E+00  1.20100000E+01
  1.20100000E+01  1.00800000E+00  1.00800000E+00  1.00800000E+00  1.20100000E+01
  1.20100000E+01  1.00800000E+00  1.20100000E+01  1.20100000E+01  1.00800000E+00
  1.20100000E+01  1.20100000E+01  1.00800000E+00  1.20100000E+01  1.20100000E+01
  1.00800000E+00  1.20100000E+01  1.00800000E+00  1.00800000E+00  1.00800000E+00
  1.20100000E+01  1.20100000E+01  1.20100000E+01  1.20100000E+01  1.20100000E+01
  1.00800000E+00  1.20100000E+01  1.20100000E+01  1.20100000E+01  1.20100000E+01
  1.20100000E+01  1.00800000E+00  1.00800000E+00  1.20100000E+01  1.00800000E+00
  1.20100000E+01  1.20100000E+01  1.00800000E+00  1.00800000E+00  1.00800000E+00
  1.20100000E+01  1.20100000E+01  1.00800000E+00  1.20100000E+01  1.20100000E+01
  1.00800000E+00  1.20100000E+01  1.20100000E+01  1.00800000E+00  1.20100000E+01
  1.20100000E+01  1.00800000E+00  1.20100000E+01  1.00800000E+00  1.00800000E+00
  1.00800000E+00  1.20100000E+01  1.20100000E+01  1.20100000E+01  1.20100000E+01
  1.20100000E+01  1.00800000E+00  1.20100000E+01  1.20100000E+01  1.20100000E+01
  1.20100000E+01  1.20100000E+01  1.00800000E+00  1.00800000E+00  1.20100000E+01
  1.00800000E+00  1.20100000E+01  1.20100000E+01  1.00800000E+00  1.00800000E+00
  1.00800000E+00  1.20100000E+01  1.20100000E+01  1.00800000E+00  1.20100000E+01
  1.20100000E+01  1.00800000E+00  1.20100000E+01  1.20100000E+01  1.00800000E+00
  1.20100000E+01  1.20100000E+01  1.00800000E+00  1.20100000E+01  1.00800000E+00
  1.00800000E+00  1.00800000E+00  1.20100000E+01  1.20100000E+01  1.20100000E+01
  1.20100000E+01  1.20100000E+01  1.00800000E+00  1.20100000E+01  1.20100000E+01
  1.20100000E+01  1.20100000E+01  1.20100000E+01  1.00800000E+00  1.00800000E+00
  1.20100000E+01  1.00800000E+00  1.20100000E+01  1.20100000E+01  1.00800000E+00
  1.00800000E+00  1.00800000E+00  1.20100000E+01  1.20100000E+01  1.00800000E+00
  1.20100000E+01  1.20100000E+01  1.00800000E+00  1.20100000E+01  1.20100000E+01
  1.00800000E+00  1.20100000E+01  1.20100000E+01  1.00800000E+00  1.20100000E+01
  1.00800000E+00  1.00800000E+00  1.00800000E+00  1.20100000E+01  1.20100000E+01
  1.20100000E+01  1.20100000E+01  1.20100000E+01  1.00800000E+00  1.20100000E+01
  1.20100000E+01  1.20100000E+01  1.20100000E+01  1.20100000E+01  1.00800000E+00
  1.00800000E+00  1.20100000E+01  1.00800000E+00  1.20100000E+01  1.20100000E+01
  1.00800000E+00  1.00800000E+00  1.00800000E+00  1.20100000E+01  1.20100000E+01
  1.00800000E+00  1.20100000E+01  1.20100000E+01  1.00800000E+00  1.20100000E+01
  1.20100000E+01  1.00800000E+00  1.20100000E+01  1.20100000E+01  1.00800000E+00
  1.20100000E+01  1.00800000E+00  1.00800000E+00  1.00800000E+00  1.20100000E+01
  1.20100000E+01  1.20100000E+01  1.20100000E+01  1.20100000E+01  1.00800000E+00
  1.20100000E+01  1.20100000E+01  1.20100000E+01  1.20100000E+01  1.20100000E+01
  1.00800000E+00  1.00800000E+00  1.20100000E+01  1.00800000E+00  1.20100000E+01
  1.20100000E+01  1.00800000E+00  1.00800000E+00  1.00800000E+00  1.20100000E+01
  1.20100000E+01  1.00800000E+00  1.20100000E+01  1.20100000E+01  1.00800000E+00
  1.20100000E+01  1.20100000E+01  1.00800000E+00  1.20100000E+01  1.20100000E+01
  1.00800000E+00  1.20100000E+01  1.00800000E+00  1.00800000E+00  1.00800000E+00
  1.20100000E+01  1.20100000E+01  1.20100000E+01  1.20100000E+01  1.20100000E+01
  1.00800000E+00  1.20100000E+01  1.20100000E+01  1.20100000E+01  1.20100000E+01
  1.20100000E+01  1.00800000E+00  1.00800000E+00  1.20100000E+01  1.00800000E+00
  1.20100000E+01  1.20100000E+01  1.00800000E+00  1.00800000E+00  1.00800000E+00
  1.20100000E+01  1.20100000E+01  1.00800000E+00  1.20100000E+01  1.20100000E+01
  1.00800000E+00  1.20100000E+01  1.20100000E+01  1.00800000E+00  1.20100000E+01
  1.20100000E+01  1.00800000E+00  1.20100000E+01  1.00800000E+00  1.00800000E+00
  1.00800000E+00  1.20100000E+01  1.20100000E+01  1.20100000E+01  1.20100000E+01
  1.20100000E+01  1.00800000E+00  1.20100000E+01  1.20100000E+01  1.20100000E+01
  1.20100000E+01  1.20100000E+01  1.00800000E+00  1.00800000E+00  1.20100000E+01
  1.00800000E+00  1.20100000E+01  1.20100000E+01  1.00800000E+00  1.00800000E+00
  1.00800000E+00  1.20100000E+01  1.20100000E+01  1.00800000E+00  1.20100000E+01
  1.20100000E+01  1.00800000E+00  1.20100000E+01  1.20100000E+01  1.00800000E+00
  1.20100000E+01  1.20100000E+01  1.00800000E+00  1.20100000E+01  1.00800000E+00
  1.00800000E+00  1.00800000E+00  1.20100000E+01  1.20100000E+01  1.20100000E+01
  1.20100000E+01  1.20100000E+01  1.00800000E+00  1.20100000E+01  1.20100000E+01
  1.20100000E+01  1.20100000E+01  1.20100000E+01  1.00800000E+00  1.00800000E+00
  1.20100000E+01  1.00800000E+00  1.20100000E+01  1.20100000E+01  1.00800000E+00
  1.00800000E+00  1.00800000E+00  1.20100000E+01  1.20100000E+01  1.00800000E+00
  1.20100000E+01  1.20100000E+01  1.00800000E+00  1.20100000E+01  1.20100000E+01
  1.00800000E+00  1.20100000E+01  1.20100000E+01  1.00800000E+00  1.20100000E+01
  1.00800000E+00  1.00800000E+00  1.00800000E+00  1.20100000E+01  1.20100000E+01
  1.20100000E+01  1.20100000E+01  1.20100000E+01  1.00800000E+00  1.20100000E+01
  1.20100000E+01  1.20100000E+01  1.20100000E+01  1.20100000E+01  1.00800000E+00
  1.00800000E+00  1.20100000E+01  1.00800000E+00  1.20100000E+01  1.20100000E+01
  1.00800000E+00  1.00800000E+00  1.00800000E+00  1.20100000E+01  1.20100000E+01
  1.00800000E+00  1.20100000E+01  1.20100000E+01  1.00800000E+00  1.20100000E+01
  1.20100000E+01  1.00800000E+00  1.20100000E+01  1.20100000E+01  1.00800000E+00
  1.20100000E+01  1.00800000E+00  1.00800000E+00  1.00800000E+00  1.20100000E+01
  1.20100000E+01  1.20100000E+01  1.20100000E+01  1.20100000E+01  1.00800000E+00
  1.20100000E+01  1.20100000E+01  1.20100000E+01  1.20100000E+01  1.20100000E+01
  1.00800000E+00  1.00800000E+00  1.20100000E+01  1.00800000E+00  1.20100000E+01
  1.20100000E+01  1.00800000E+00  1.00800000E+00  1.00800000E+00  1.20100000E+01
  1.20100000E+01  1.00800000E+00  1.20100000E+01  1.20100000E+01  1.00800000E+00
  1.20100000E+01  1.20100000E+01  1.00800000E+00  1.20100000E+01  1.20100000E+01
  1.00800000E+00  1.20100000E+01  1.00800000E+00  1.00800000E+00  1.00800000E+00
  1.20100000E+01  1.20100000E+01  1.20100000E+01  1.20100000E+01  1.20100000E+01
  1.00800000E+00  1.20100000E+01  1.20100000E+01  1.20100000E+01  1.20100000E+01
  1.20100000E+01  1.00800000E+00  1.00800000E+00  1.20100000E+01  1.00800000E+00
  1.20100000E+01  1.20100000E+01  1.00800000E+00  1.00800000E+00  1.00800000E+00
  1.20100000E+01  1.20100000E+01  1.00800000E+00  1.20100000E+01  1.20100000E+01
  1.00800000E+00  1.20100000E+01  1.20100000E+01  1.00800000E+00  1.20100000E+01
  1.20100000E+01  1.00800000E+00  1.20100000E+01  1.00800000E+00  1.00800000E+00
  1.00800000E+00  1.20100000E+01  1.20100000E+01  1.20100000E+01  1.20100000E+01
  1.20100000E+01  1.00800000E+00  1.20100000E+01  1.20100000E+01  1.20100000E+01
  1.20100000E+01  1.20100000E+01  1.00800000E+00  1.00800000E+00  1.20100000E+01
  1.00800000E+00  1.20100000E+01  1.20100000E+01  1.00800000E+00  1.00800000E+00
  1.00800000E+00  1.20100000E+01  1.20100000E+01  1.00800000E+00  1.20100000E+01
  1.20100000E+01  1.00800000E+00  1.20100000E+01  1.20100000E+01  1.00800000E+00
  1.20100000E+01  1.20100000E+01  1.00800000E+00  1.20100000E+01  1.00800000E+00
  1.00800000E+00  1.00800000E+00  1.20100000E+01  1.20100000E+01  1.20100000E+01
  1.20100000E+01  1.20100000E+01  1.00800000E+00  1.20100000E+01  1.20100000E+01
  1.20100000E+01  1.20100000E+01  1.20100000E+01  1.00800000E+00  1.00800000E+00
  1.20100000E+01  1.00800000E+00  1.20100000E+01  1.20100000E+01  1.00800000E+00
  1.00800000E+00  1.00800000E+00  1.20100000E+01  1.20100000E+01  1.00800000E+00
  1.20100000E+01  1.20100000E+01  1.00800000E+00  1.20100000E+01  1.20100000E+01
  1.00800000E+00  1.20100000E+01  1.20100000E+01  1.00800000E+00  1.20100000E+01
  1.00800000E+00  1.00800000E+00  1.00800000E+00  1.20100000E+01  1.20100000E+01
  1.20100000E+01  1.20100000E+01  1.20100000E+01  1.00800000E+00  1.20100000E+01
  1.20100000E+01  1.20100000E+01  1.20100000E+01  1.20100000E+01  1.00800000E+00
  1.00800000E+00  1.20100000E+01  1.00800000E+00  1.20100000E+01  1.20100000E+01
  1.00800000E+00  1.00800000E+00  1.00800000E+00  1.20100000E+01  1.20100000E+01
  1.00800000E+00  1.20100000E+01  1.20100000E+01  1.00800000E+00  1.20100000E+01
  1.20100000E+01  1.00800000E+00  1.20100000E+01  1.20100000E+01  1.00800000E+00
  1.20100000E+01  1.00800000E+00  1.00800000E+00  1.00800000E+00  1.20100000E+01
  1.20100000E+01  1.20100000E+01  1.20100000E+01  1.20100000E+01  1.00800000E+00
  1.20100000E+01  1.20100000E+01  1.20100000E+01  1.20100000E+01  1.20100000E+01
  1.00800000E+00  1.00800000E+00  1.20100000E+01  1.00800000E+00  1.20100000E+01
  1.20100000E+01  1.00800000E+00  1.00800000E+00  1.00800000E+00  1.20100000E+01
  1.20100000E+01  1.00800000E+00  1.20100000E+01  1.20100000E+01  1.00800000E+00
  1.20100000E+01  1.20100000E+01  1.00800000E+00  1.20100000E+01  1.20100000E+01
  1.00800000E+00  1.20100000E+01  1.00800000E+00  1.00800000E+00  1.00800000E+00
  1.20100000E+01  1.20100000E+01  1.20100000E+01  1.20100000E+01  1.20100000E+01
  1.00800000E+00  1.20100000E+01  1.20100000E+01  1.20100000E+01  1.20100000E+01
  1.20100000E+01  1.00800000E+00  1.00800000E+00  1.20100000E+01  1.00800000E+00
  1.20100000E+01  1.20100000E+01  1.00800000E+00  1.00800000E+00  1.00800000E+00
  1.20100000E+01  1.20100000E+01  1.00800000E+00  1.20100000E+01  1.20100000E+01
  1.00800000E+00  1.20100000E+01  1.20100000E+01  1.00800000E+00  1.20100000E+01
  1.20100000E+01  1.00800000E+00  1.20100000E+01  1.00800000E+00  1.00800000E+00
  1.00800000E+00  1.20100000E+01  1.20100000E+01  1.20100000E+01  1.20100000E+01
  1.20100000E+01  1.00800000E+00  1.20100000E+01  1.20100000E+01  1.20100000E+01
  1.20100000E+01  1.20100000E+01  1.00800000E+00  1.00800000E+00  1.20100000E+01
  1.00800000E+00  1.20100000E+01  1.20100000E+01  1.00800000E+00  1.00800000E+00
  1.00800000E+00  1.20100000E+01  1.20100000E+01  1.00800000E+00  1.20100000E+01
  1.20100000E+01  1.00800000E+00  1.20100000E+01  1.20100000E+01  1.00800000E+00
  1.20100000E+01  1.20100000E+01  1.00800000E+00  1.20100000E+01  1.00800000E+00
  1.00800000E+00  1.00800000E+00  1.20100000E+01  1.20100000E+01  1.20100000E+01
  1.20100000E+01  1.20100000E+01  1.00800000E+00  1.20100000E+01  1.20100000E+01
  1.20100000E+01  1.20100000E+01  1.20100000E+01  1.00800000E+00  1.00800000E+00
  1.20100000E+01  1.00800000E+00  1.20100000E+01  1.20100000E+01  1.00800000E+00
  1.00800000E+00  1.00800000E+00  1.20100000E+01  1.20100000E+01  1.00800000E+00
  1.20100000E+01  1.20100000E+01  1.00800000E+00  1.20100000E+01  1.20100000E+01
  1.00800000E+00  1.20100000E+01  1.20100000E+01  1.00800000E+00  1.20100000E+01
  1.00800000E+00  1.00800000E+00  1.00800000E+00  1.20100000E+01  1.20100000E+01
  1.20100000E+01  1.20100000E+01  1.20100000E+01  1.00800000E+00  1.20100000E+01
  1.20100000E+01  1.20100000E+01  1.20100000E+01  1.20100000E+01  1.00800000E+00
  1.00800000E+00  1.20100000E+01  1.00800000E+00  1.20100000E+01  1.20100000E+01
  1.00800000E+00  1.00800000E+00  1.00800000E+00  1.20100000E+01  1.20100000E+01
  1.00800000E+00  1.20100000E+01  1.20100000E+01  1.00800000E+00  1.20100000E+01
  1.20100000E+01  1.00800000E+00  1.20100000E+01  1.20100000E+01  1.00800000E+00
  1.20100000E+01  1.00800000E+00  1.00800000E+00  1.00800000E+00  1.20100000E+01
  1.20100000E+01  1.20100000E+01  1.20100000E+01  1.20100000E+01  1.00800000E+00
  1.20100000E+01  1.20100000E+01  1.20100000E+01  1.20100000E+01  1.20100000E+01
  1.00800000E+00  1.00800000E+00  1.20100000E+01  1.00800000E+00  1.20100000E+01
  1.20100000E+01  1.00800000E+00  1.00800000E+00  1.00800000E+00  1.20100000E+01
  1.20100000E+01  1.00800000E+00  1.20100000E+01  1.20100000E+01  1.00800000E+00
  1.20100000E+01  1.20100000E+01  1.00800000E+00  1.20100000E+01  1.20100000E+01
  1.00800000E+00  1.20100000E+01  1.00800000E+00  1.00800000E+00  1.00800000E+00
  1.20100000E+01  1.20100000E+01  1.20100000E+01  1.20100000E+01  1.20100000E+01
  1.00800000E+00  1.20100000E+01  1.20100000E+01  1.20100000E+01  1.20100000E+01
  1.20100000E+01  1.00800000E+00  1.00800000E+00  1.20100000E+01  1.00800000E+00
  1.20100000E+01  1.20100000E+01  1.00800000E+00  1.00800000E+00  1.00800000E+00
  1.20100000E+01  1.20100000E+01  1.00800000E+00  1.20100000E+01  1.20100000E+01
  1.00800000E+00  1.20100000E+01  1.20100000E+01  1.00800000E+00  1.20100000E+01
  1.20100000E+01  1.00800000E+00  1.20100000E+01  1.00800000E+00  1.00800000E+00
  1.00800000E+00  1.20100000E+01  1.20100000E+01  1.20100000E+01  1.20100000E+01
  1.20100000E+01  1.00800000E+00  1.20100000E+01  1.20100000E+01  1.20100000E+01
  1.20100000E+01  1.20100000E+01  1.00800000E+00  1.00800000E+00  1.20100000E+01
  1.00800000E+00  1.20100000E+01  1.20100000E+01  1.00800000E+00  1.00800000E+00
  1.00800000E+00  1.20100000E+01  1.20100000E+01  1.00800000E+00  1.20100000E+01
  1.20100000E+01  1.00800000E+00  1.20100000E+01  1.20100000E+01  1.00800000E+00
  1.20100000E+01  1.20100000E+01  1.00800000E+00  1.20100000E+01  1.00800000E+00
  1.00800000E+00  1.00800000E+00  1.20100000E+01  1.20100000E+01  1.20100000E+01
  1.20100000E+01  1.20100000E+01  1.00800000E+00  1.20100000E+01  1.20100000E+01
  1.20100000E+01  1.20100000E+01  1.20100000E+01  1.00800000E+00  1.00800000E+00
  1.20100000E+01  1.00800000E+00  1.20100000E+01  1.20100000E+01  1.00800000E+00
  1.00800000E+00  1.00800000E+00  1.20100000E+01  1.20100000E+01  1.00800000E+00
  1.20100000E+01  1.20100000E+01  1.00800000E+00  1.20100000E+01  1.20100000E+01
  1.00800000E+00  1.20100000E+01  1.20100000E+01  1.00800000E+00  1.20100000E+01
  1.00800000E+00  1.00800000E+00  1.00800000E+00  1.20100000E+01  1.20100000E+01
  1.20100000E+01  1.20100000E+01  1.20100000E+01  1.00800000E+00  1.20100000E+01
  1.20100000E+01  1.20100000E+01  1.20100000E+01  1.20100000E+01  1.00800000E+00
  1.00800000E+00  1.20100000E+01  1.00800000E+00  1.20100000E+01  1.20100000E+01
  1.00800000E+00  1.00800000E+00  1.00800000E+00  1.20100000E+01  1.20100000E+01
  1.00800000E+00  1.20100000E+01  1.20100000E+01  1.00800000E+00  1.20100000E+01
  1.20100000E+01  1.00800000E+00  1.20100000E+01  1.20100000E+01  1.00800000E+00
  1.20100000E+01  1.00800000E+00  1.00800000E+00  1.00800000E+00  1.20100000E+01
  1.20100000E+01  1.20100000E+01  1.20100000E+01  1.20100000E+01  1.00800000E+00
  1.20100000E+01  1.20100000E+01  1.20100000E+01  1.20100000E+01  1.20100000E+01
  1.00800000E+00  1.00800000E+00  1.20100000E+01  1.00800000E+00  1.20100000E+01
  1.20100000E+01  1.00800000E+00  1.00800000E+00  1.00800000E+00  1.20100000E+01
  1.20100000E+01  1.00800000E+00  1.20100000E+01  1.20100000E+01  1.00800000E+00
  1.20100000E+01  1.20100000E+01  1.00800000E+00  1.20100000E+01  1.20100000E+01
  1.00800000E+00  1.20100000E+01  1.00800000E+00  1.00800000E+00  1.00800000E+00
  1.20100000E+01  1.20100000E+01  1.20100000E+01  1.20100000E+01  1.20100000E+01
  1.00800000E+00  1.20100000E+01  1.20100000E+01  1.20100000E+01  1.20100000E+01
  1.20100000E+01  1.00800000E+00  1.00800000E+00  1.20100000E+01  1.00800000E+00
  1.20100000E+01  1.20100000E+01  1.00800000E+00  1.00800000E+00  1.00800000E+00
  1.20100000E+01  1.20100000E+01  1.00800000E+00  1.20100000E+01  1.20100000E+01
  1.00800000E+00  1.20100000E+01  1.20100000E+01  1.00800000E+00  1.20100000E+01
  1.20100000E+01  1.00800000E+00  1.20100000E+01  1.00800000E+00  1.00800000E+00
  1.00800000E+00  1.20100000E+01  1.20100000E+01  1.20100000E+01  1.20100000E+01
  1.20100000E+01  1.00800000E+00  1.20100000E+01  1.20100000E+01  1.20100000E+01
  1.20100000E+01  1.20100000E+01  1.00800000E+00  1.00800000E+00  1.20100000E+01
  1.00800000E+00  1.20100000E+01  1.20100000E+01  1.00800000E+00  1.00800000E+00
  1.00800000E+00  1.20100000E+01  1.20100000E+01  1.00800000E+00  1.20100000E+01
  1.20100000E+01  1.00800000E+00  1.20100000E+01  1.20100000E+01  1.00800000E+00
  1.20100000E+01  1.20100000E+01  1.00800000E+00  1.20100000E+01  1.00800000E+00
  1.00800000E+00  1.00800000E+00  1.20100000E+01  1.20100000E+01  1.20100000E+01
  1.20100000E+01  1.20100000E+01  1.00800000E+00  1.20100000E+01  1.20100000E+01
  1.20100000E+01  1.20100000E+01  1.20100000E+01  1.00800000E+00  1.00800000E+00
  1.20100000E+01  1.00800000E+00  1.20100000E+01  1.20100000E+01  1.00800000E+00
  1.00800000E+00  1.00800000E+00  1.20100000E+01  1.20100000E+01  1.00800000E+00
  1.20100000E+01  1.20100000E+01  1.00800000E+00  1.20100000E+01  1.20100000E+01
  1.00800000E+00  1.20100000E+01  1.20100000E+01  1.00800000E+00  1.20100000E+01
  1.00800000E+00  1.00800000E+00  1.00800000E+00  1.20100000E+01  1.20100000E+01
  1.20100000E+01  1.20100000E+01  1.20100000E+01  1.00800000E+00  1.20100000E+01
  1.20100000E+01  1.20100000E+01  1.20100000E+01  1.20100000E+01  1.00800000E+00
  1.00800000E+00  1.20100000E+01  1.00800000E+00  1.20100000E+01  1.20100000E+01
  1.00800000E+00  1.00800000E+00  1.00800000E+00  1.20100000E+01  1.20100000E+01
  1.00800000E+00  1.20100000E+01  1.20100000E+01  1.00800000E+00  1.20100000E+01
  1.20100000E+01  1.00800000E+00  1.20100000E+01  1.20100000E+01  1.00800000E+00
  1.20100000E+01  1.00800000E+00  1.00800000E+00  1.00800000E+00  1.20100000E+01
  1.20100000E+01  1.20100000E+01  1.20100000E+01  1.20100000E+01  1.00800000E+00
  1.20100000E+01  1.20100000E+01  1.20100000E+01  1.20100000E+01  1.20100000E+01
  1.00800000E+00  1.00800000E+00  1.20100000E+01  1.00800000E+00  1.20100000E+01
  1.20100000E+01  1.00800000E+00  1.00800000E+00  1.00800000E+00  1.20100000E+01
  1.20100000E+01  1.00800000E+00  1.20100000E+01  1.20100000E+01  1.00800000E+00
  1.20100000E+01  1.20100000E+01  1.00800000E+00  1.20100000E+01  1.20100000E+01
  1.00800000E+00  1.20100000E+01  1.00800000E+00  1.00800000E+00  1.00800000E+00
  1.20100000E+01  1.20100000E+01  1.20100000E+01  1.20100000E+01  1.20100000E+01
  1.00800000E+00  1.20100000E+01  1.20100000E+01  1.20100000E+01  1.20100000E+01
  1.20100000E+01  1.00800000E+00  1.00800000E+00  1.20100000E+01  1.00800000E+00
  1.20100000E+01  1.20100000E+01  1.00800000E+00  1.00800000E+00  1.00800000E+00
  1.20100000E+01  1.20100000E+01  1.00800000E+00  1.20100000E+01  1.20100000E+01
  1.00800000E+00  1.20100000E+01  1.20100000E+01  1.00800000E+00  1.20100000E+01
  1.20100000E+01  1.00800000E+00  1.20100000E+01  1.00800000E+00  1.00800000E+00
  1.00800000E+00  1.20100000E+01  1.20100000E+01  1.20100000E+01  1.20100000E+01
  1.20100000E+01  1.00800000E+00  1.20100000E+01  1.20100000E+01  1.20100000E+01
  1.20100000E+01  1.20100000E+01  1.00800000E+00  1.00800000E+00  1.20100000E+01
  1.00800000E+00  1.20100000E+01  1.20100000E+01  1.00800000E+00  1.00800000E+00
  1.00800000E+00  1.20100000E+01  1.20100000E+01  1.00800000E+00  1.20100000E+01
  1.20100000E+01  1.00800000E+00  1.20100000E+01  1.20100000E+01  1.00800000E+00
  1.20100000E+01  1.20100000E+01  1.00800000E+00  1.20100000E+01  1.00800000E+00
  1.00800000E+00  1.00800000E+00  1.20100000E+01  1.20100000E+01  1.20100000E+01
  1.20100000E+01  1.20100000E+01  1.00800000E+00  1.20100000E+01  1.20100000E+01
  1.20100000E+01  1.20100000E+01  1.20100000E+01  1.00800000E+00  1.00800000E+00
  1.20100000E+01  1.00800000E+00  1.20100000E+01  1.20100000E+01  1.00800000E+00
  1.00800000E+00  1.00800000E+00  1.20100000E+01  1.20100000E+01  1.00800000E+00
  1.20100000E+01  1.20100000E+01  1.00800000E+00  1.20100000E+01  1.20100000E+01
  1.00800000E+00  1.20100000E+01  1.20100000E+01  1.00800000E+00  1.20100000E+01
  1.00800000E+00  1.00800000E+00  1.00800000E+00  1.20100000E+01  1.20100000E+01
  1.20100000E+01  1.20100000E+01  1.20100000E+01  1.00800000E+00  1.20100000E+01
  1.20100000E+01  1.20100000E+01  1.20100000E+01  1.20100000E+01  1.00800000E+00
  1.00800000E+00  1.20100000E+01  1.00800000E+00  1.20100000E+01  1.20100000E+01
  1.00800000E+00  1.00800000E+00  1.00800000E+00  1.20100000E+01  1.20100000E+01
  1.00800000E+00  1.20100000E+01  1.20100000E+01  1.00800000E+00  1.20100000E+01
  1.20100000E+01  1.00800000E+00  1.20100000E+01  1.20100000E+01  1.00800000E+00
  1.20100000E+01  1.00800000E+00  1.00800000E+00  1.00800000E+00  1.20100000E+01
  1.20100000E+01  1.20100000E+01  1.20100000E+01  1.20100000E+01  1.00800000E+00
  1.20100000E+01  1.20100000E+01  1.20100000E+01  1.20100000E+01  1.20100000E+01
  1.00800000E+00  1.00800000E+00  1.20100000E+01  1.00800000E+00  1.20100000E+01
  1.20100000E+01  1.00800000E+00  1.00800000E+00  1.00800000E+00  1.20100000E+01
  1.20100000E+01  1.00800000E+00  1.20100000E+01  1.20100000E+01  1.00800000E+00
  1.20100000E+01  1.20100000E+01  1.00800000E+00  1.20100000E+01  1.20100000E+01
  1.00800000E+00  1.20100000E+01  1.00800000E+00  1.00800000E+00  1.00800000E+00
  1.20100000E+01  1.20100000E+01  1.20100000E+01  1.20100000E+01  1.20100000E+01
  1.00800000E+00  1.20100000E+01  1.20100000E+01  1.20100000E+01  1.20100000E+01
  1.20100000E+01  1.00800000E+00  1.00800000E+00  1.20100000E+01  1.00800000E+00
  1.20100000E+01  1.20100000E+01  1.00800000E+00  1.00800000E+00  1.00800000E+00
  1.20100000E+01  1.20100000E+01  1.00800000E+00  1.20100000E+01  1.20100000E+01
  1.00800000E+00  1.20100000E+01  1.20100000E+01  1.00800000E+00  1.20100000E+01
  1.20100000E+01  1.00800000E+00  1.20100000E+01  1.00800000E+00  1.00800000E+00
  1.00800000E+00  1.20100000E+01  1.20100000E+01  1.20100000E+01  1.20100000E+01
  1.20100000E+01  1.00800000E+00  1.20100000E+01  1.20100000E+01  1.20100000E+01
  1.20100000E+01  1.20100000E+01  1.00800000E+00  1.00800000E+00  1.20100000E+01
  1.00800000E+00  1.20100000E+01  1.20100000E+01  1.00800000E+00  1.00800000E+00
  1.00800000E+00  1.20100000E+01  1.20100000E+01  1.00800000E+00  1.20100000E+01
  1.20100000E+01  1.00800000E+00  1.20100000E+01  1.20100000E+01  1.00800000E+00
  1.20100000E+01  1.20100000E+01  1.00800000E+00  1.20100000E+01  1.00800000E+00
  1.00800000E+00  1.00800000E+00  1.20100000E+01  1.20100000E+01  1.20100000E+01
  1.20100000E+01  1.20100000E+01  1.00800000E+00  1.20100000E+01  1.20100000E+01
  1.20100000E+01  1.20100000E+01  1.20100000E+01  1.00800000E+00  1.00800000E+00
  1.20100000E+01  1.00800000E+00  1.20100000E+01  1.20100000E+01  1.00800000E+00
  1.00800000E+00  1.00800000E+00  1.20100000E+01  1.20100000E+01  1.00800000E+00
  1.20100000E+01  1.20100000E+01  1.00800000E+00  1.20100000E+01  1.20100000E+01
  1.00800000E+00  1.20100000E+01  1.20100000E+01  1.00800000E+00  1.20100000E+01
  1.00800000E+00  1.00800000E+00  1.00800000E+00  1.20100000E+01  1.20100000E+01
  1.20100000E+01  1.20100000E+01  1.20100000E+01  1.00800000E+00  1.20100000E+01
  1.20100000E+01  1.20100000E+01  1.20100000E+01  1.20100000E+01  1.00800000E+00
  1.00800000E+00  1.20100000E+01  1.00800000E+00  1.20100000E+01  1.20100000E+01
  1.00800000E+00  1.00800000E+00  1.00800000E+00  1.20100000E+01  1.20100000E+01
  1.00800000E+00  1.20100000E+01  1.20100000E+01  1.00800000E+00  1.20100000E+01
  1.20100000E+01  1.00800000E+00  1.20100000E+01  1.20100000E+01  1.00800000E+00
  1.20100000E+01  1.00800000E+00  1.00800000E+00  1.00800000E+00  1.20100000E+01
  1.20100000E+01  1.20100000E+01  1.20100000E+01  1.20100000E+01  1.00800000E+00
  1.20100000E+01  1.20100000E+01  1.20100000E+01  1.20100000E+01  1.20100000E+01
  1.00800000E+00  1.00800000E+00  1.20100000E+01  1.00800000E+00  1.20100000E+01
  1.20100000E+01  1.00800000E+00  1.00800000E+00  1.00800000E+00  1.20100000E+01
  1.20100000E+01  1.00800000E+00  1.20100000E+01  1.20100000E+01  1.00800000E+00
  1.20100000E+01  1.20100000E+01  1.00800000E+00  1.20100000E+01  1.20100000E+01
  1.00800000E+00  1.20100000E+01  1.00800000E+00  1.00800000E+00  1.00800000E+00
  1.20100000E+01  1.20100000E+01  1.20100000E+01  1.20100000E+01  1.20100000E+01
  1.00800000E+00  1.20100000E+01  1.20100000E+01  1.20100000E+01  1.20100000E+01
  1.20100000E+01  1.00800000E+00  1.00800000E+00  1.20100000E+01  1.00800000E+00
  1.20100000E+01  1.20100000E+01  1.00800000E+00  1.00800000E+00  1.00800000E+00
  1.20100000E+01  1.20100000E+01  1.00800000E+00  1.20100000E+01  1.20100000E+01
  1.00800000E+00  1.20100000E+01  1.20100000E+01  1.00800000E+00  1.20100000E+01
  1.20100000E+01  1.00800000E+00  1.20100000E+01  1.00800000E+00  1.00800000E+00
  1.00800000E+00  1.20100000E+01  1.20100000E+01  1.20100000E+01  1.20100000E+01
  1.20100000E+01  1.00800000E+00  1.20100000E+01  1.20100000E+01  1.20100000E+01
  1.20100000E+01  1.20100000E+01  1.00800000E+00  1.00800000E+00  1.20100000E+01
  1.00800000E+00  1.20100000E+01  1.20100000E+01  1.00800000E+00  1.00800000E+00
  1.00800000E+00  1.20100000E+01  1.20100000E+01  1.00800000E+00  1.20100000E+01
  1.20100000E+01  1.00800000E+00  1.20100000E+01  1.20100000E+01  1.00800000E+00
  1.20100000E+01  1.20100000E+01  1.00800000E+00  1.20100000E+01  1.00800000E+00
  1.00800000E+00  1.00800000E+00  1.20100000E+01  1.20100000E+01  1.20100000E+01
  1.20100000E+01  1.20100000E+01  1.00800000E+00  1.20100000E+01  1.20100000E+01
  1.20100000E+01  1.20100000E+01  1.20100000E+01  1.00800000E+00  1.00800000E+00
  1.20100000E+01  1.00800000E+00  1.20100000E+01  1.20100000E+01  1.00800000E+00
  1.00800000E+00  1.00800000E+00  1.20100000E+01  1.20100000E+01  1.00800000E+00
  1.20100000E+01  1.20100000E+01  1.00800000E+00  1.20100000E+01  1.20100000E+01
  1.00800000E+00  1.20100000E+01  1.20100000E+01  1.00800000E+00  1.20100000E+01
  1.00800000E+00  1.00800000E+00  1.00800000E+00  1.20100000E+01  1.20100000E+01
  1.20100000E+01  1.20100000E+01  1.20100000E+01  1.00800000E+00  1.20100000E+01
  1.20100000E+01  1.20100000E+01  1.20100000E+01  1.20100000E+01  1.00800000E+00
  1.00800000E+00  1.20100000E+01  1.00800000E+00  1.20100000E+01  1.20100000E+01
  1.00800000E+00  1.00800000E+00  1.00800000E+00  1.20100000E+01  1.20100000E+01
  1.00800000E+00  1.20100000E+01  1.20100000E+01  1.00800000E+00  1.20100000E+01
  1.20100000E+01  1.00800000E+00  1.20100000E+01  1.20100000E+01  1.00800000E+00
  1.20100000E+01  1.00800000E+00  1.00800000E+00  1.00800000E+00  1.20100000E+01
  1.20100000E+01  1.20100000E+01  1.20100000E+01  1.20100000E+01  1.00800000E+00
  1.20100000E+01  1.20100000E+01  1.20100000E+01  1.20100000E+01  1.20100000E+01
  1.00800000E+00  1.00800000E+00  1.20100000E+01  1.00800000E+00  1.20100000E+01
  1.20100000E+01  1.00800000E+00  1.00800000E+00  1.00800000E+00  1.20100000E+01
  1.20100000E+01  1.00800000E+00  1.20100000E+01  1.20100000E+01  1.00800000E+00
  1.20100000E+01  1.20100000E+01  1.00800000E+00  1.20100000E+01  1.20100000E+01
  1.00800000E+00  1.20100000E+01  1.00800000E+00  1.00800000E+00  1.00800000E+00
  1.20100000E+01  1.20100000E+01  1.20100000E+01  1.20100000E+01  1.20100000E+01
  1.00800000E+00  1.20100000E+01  1.20100000E+01  1.20100000E+01  1.20100000E+01
  1.20100000E+01  1.00800000E+00  1.00800000E+00  1.20100000E+01  1.00800000E+00
  1.20100000E+01  1.20100000E+01  1.00800000E+00  1.00800000E+00  1.00800000E+00
  1.20100000E+01  1.20100000E+01  1.00800000E+00  1.20100000E+01  1.20100000E+01
  1.00800000E+00  1.20100000E+01  1.20100000E+01  1.00800000E+00  1.20100000E+01
  1.20100000E+01  1.00800000E+00  1.20100000E+01  1.00800000E+00  1.00800000E+00
  1.00800000E+00  1.20100000E+01  1.20100000E+01  1.20100000E+01  1.20100000E+01
  1.20100000E+01  1.00800000E+00  1.20100000E+01  1.20100000E+01  1.20100000E+01
  1.20100000E+01  1.20100000E+01  1.00800000E+00  1.00800000E+00  1.20100000E+01
  1.00800000E+00  1.20100000E+01  1.20100000E+01  1.00800000E+00  1.00800000E+00
  1.00800000E+00  1.20100000E+01  1.20100000E+01  1.00800000E+00  1.20100000E+01
  1.20100000E+01  1.00800000E+00  1.20100000E+01  1.20100000E+01  1.00800000E+00
  1.20100000E+01  1.20100000E+01  1.00800000E+00  1.20100000E+01  1.00800000E+00
  1.00800000E+00  1.00800000E+00  1.20100000E+01  1.20100000E+01  1.20100000E+01
  1.20100000E+01  1.20100000E+01  1.00800000E+00  1.20100000E+01  1.20100000E+01
  1.20100000E+01  1.20100000E+01  1.20100000E+01  1.00800000E+00  1.00800000E+00
  1.20100000E+01  1.00800000E+00  1.20100000E+01  1.20100000E+01  1.00800000E+00
  1.00800000E+00  1.00800000E+00  1.20100000E+01  1.20100000E+01  1.00800000E+00
  1.20100000E+01  1.20100000E+01  1.00800000E+00  1.20100000E+01  1.20100000E+01
  1.00800000E+00  1.20100000E+01  1.20100000E+01  1.00800000E+00  1.20100000E+01
  1.00800000E+00  1.00800000E+00  1.00800000E+00  1.20100000E+01  1.20100000E+01
  1.20100000E+01  1.20100000E+01  1.20100000E+01  1.00800000E+00  1.20100000E+01
  1.20100000E+01  1.20100000E+01  1.20100000E+01  1.20100000E+01  1.00800000E+00
  1.00800000E+00  1.20100000E+01  1.00800000E+00  1.20100000E+01  1.20100000E+01
  1.00800000E+00  1.00800000E+00  1.00800000E+00  1.20100000E+01  1.20100000E+01
  1.00800000E+00  1.20100000E+01  1.20100000E+01  1.00800000E+00  1.20100000E+01
  1.20100000E+01  1.00800000E+00  1.20100000E+01  1.20100000E+01  1.00800000E+00
  1.20100000E+01  1.00800000E+00  1.00800000E+00  1.00800000E+00  1.20100000E+01
  1.20100000E+01  1.20100000E+01  1.20100000E+01  1.20100000E+01  1.00800000E+00
  1.20100000E+01  1.20100000E+01  1.20100000E+01  1.20100000E+01  1.20100000E+01
  1.00800000E+00  1.00800000E+00  1.20100000E+01  1.00800000E+00  1.20100000E+01
  1.20100000E+01  1.00800000E+00  1.00800000E+00  1.00800000E+00  1.20100000E+01
  1.20100000E+01  1.00800000E+00  1.20100000E+01  1.20100000E+01  1.00800000E+00
  1.20100000E+01  1.20100000E+01  1.00800000E+00  1.20100000E+01  1.20100000E+01
  1.00800000E+00  1.20100000E+01  1.00800000E+00  1.00800000E+00  1.00800000E+00
  1.20100000E+01  1.20100000E+01  1.20100000E+01  1.20100000E+01  1.20100000E+01
  1.00800000E+00  1.20100000E+01  1.20100000E+01  1.20100000E+01  1.20100000E+01
  1.20100000E+01  1.00800000E+00  1.00800000E+00  1.20100000E+01  1.00800000E+00
  1.20100000E+01  1.20100000E+01  1.00800000E+00  1.00800000E+00  1.00800000E+00
  1.20100000E+01  1.20100000E+01  1.00800000E+00  1.20100000E+01  1.20100000E+01
  1.00800000E+00  1.20100000E+01  1.20100000E+01  1.00800000E+00  1.20100000E+01
  1.20100000E+01  1.00800000E+00  1.20100000E+01  1.00800000E+00  1.00800000E+00
  1.00800000E+00  1.20100000E+01  1.20100000E+01  1.20100000E+01  1.20100000E+01
  1.20100000E+01  1.00800000E+00  1.20100000E+01  1.20100000E+01  1.20100000E+01
  1.20100000E+01  1.20100000E+01  1.00800000E+00  1.00800000E+00  1.20100000E+01
  1.00800000E+00  1.20100000E+01  1.20100000E+01  1.00800000E+00  1.00800000E+00
  1.00800000E+00  1.20100000E+01  1.20100000E+01  1.00800000E+00  1.20100000E+01
  1.20100000E+01  1.00800000E+00  1.20100000E+01  1.20100000E+01  1.00800000E+00
  1.20100000E+01  1.20100000E+01  1.00800000E+00  1.20100000E+01  1.00800000E+00
  1.00800000E+00  1.00800000E+00  1.20100000E+01  1.20100000E+01  1.20100000E+01
  1.20100000E+01  1.20100000E+01  1.00800000E+00  1.20100000E+01  1.20100000E+01
  1.20100000E+01  1.20100000E+01  1.20100000E+01  1.00800000E+00  1.00800000E+00
  1.20100000E+01  1.00800000E+00  1.20100000E+01  1.20100000E+01  1.00800000E+00
  1.00800000E+00  1.00800000E+00  1.20100000E+01  1.20100000E+01  1.00800000E+00
  1.20100000E+01  1.20100000E+01  1.00800000E+00  1.20100000E+01  1.20100000E+01
  1.00800000E+00  1.20100000E+01  1.20100000E+01  1.00800000E+00  1.20100000E+01
  1.00800000E+00  1.00800000E+00  1.00800000E+00  1.20100000E+01  1.20100000E+01
  1.20100000E+01  1.20100000E+01  1.20100000E+01  1.00800000E+00  1.20100000E+01
  1.20100000E+01  1.20100000E+01  1.20100000E+01  1.20100000E+01  1.00800000E+00
  1.00800000E+00  1.20100000E+01  1.00800000E+00  1.20100000E+01  1.20100000E+01
  1.00800000E+00  1.00800000E+00  1.00800000E+00  1.20100000E+01  1.20100000E+01
  1.00800000E+00  1.20100000E+01  1.20100000E+01  1.00800000E+00  1.20100000E+01
  1.20100000E+01  1.00800000E+00  1.20100000E+01  1.20100000E+01  1.00800000E+00
  1.20100000E+01  1.00800000E+00  1.00800000E+00  1.00800000E+00  1.20100000E+01
  1.20100000E+01  1.20100000E+01  1.20100000E+01  1.20100000E+01  1.00800000E+00
  1.20100000E+01  1.20100000E+01  1.20100000E+01  1.20100000E+01  1.20100000E+01
  1.00800000E+00  1.00800000E+00  1.20100000E+01  1.00800000E+00  1.20100000E+01
  1.20100000E+01  1.00800000E+00  1.00800000E+00  1.00800000E+00  1.20100000E+01
  1.20100000E+01  1.00800000E+00  1.20100000E+01  1.20100000E+01  1.00800000E+00
  1.20100000E+01  1.20100000E+01  1.00800000E+00  1.20100000E+01  1.20100000E+01
  1.00800000E+00  1.20100000E+01  1.00800000E+00  1.00800000E+00  1.00800000E+00
  1.20100000E+01  1.20100000E+01  1.20100000E+01  1.20100000E+01  1.20100000E+01
  1.00800000E+00  1.20100000E+01  1.20100000E+01  1.20100000E+01  1.20100000E+01
  1.20100000E+01  1.00800000E+00  1.00800000E+00  1.20100000E+01  1.00800000E+00
  1.20100000E+01  1.20100000E+01  1.00800000E+00  1.00800000E+00  1.00800000E+00
  1.20100000E+01  1.20100000E+01  1.00800000E+00  1.20100000E+01  1.20100000E+01
  1.00800000E+00  1.20100000E+01  1.20100000E+01  1.00800000E+00  1.20100000E+01
  1.20100000E+01  1.00800000E+00  1.20100000E+01  1.00800000E+00  1.00800000E+00
  1.00800000E+00  1.20100000E+01  1.20100000E+01  1.20100000E+01  1.20100000E+01
  1.20100000E+01  1.00800000E+00  1.20100000E+01  1.20100000E+01  1.20100000E+01
  1.20100000E+01  1.20100000E+01  1.00800000E+00  1.00800000E+00  1.20100000E+01
  1.00800000E+00  1.20100000E+01  1.20100000E+01  1.00800000E+00  1.00800000E+00
  1.00800000E+00  1.20100000E+01  1.20100000E+01  1.00800000E+00  1.20100000E+01
  1.20100000E+01  1.00800000E+00  1.20100000E+01  1.20100000E+01  1.00800000E+00
  1.20100000E+01  1.20100000E+01  1.00800000E+00  1.20100000E+01  1.00800000E+00
  1.00800000E+00  1.00800000E+00  1.20100000E+01  1.20100000E+01  1.20100000E+01
  1.20100000E+01  1.20100000E+01  1.00800000E+00  1.20100000E+01  1.20100000E+01
  1.20100000E+01  1.20100000E+01  1.20100000E+01  1.00800000E+00  1.00800000E+00
  1.20100000E+01  1.00800000E+00  1.20100000E+01  1.20100000E+01  1.00800000E+00
  1.00800000E+00  1.00800000E+00  1.20100000E+01  1.20100000E+01  1.00800000E+00
  1.20100000E+01  1.20100000E+01  1.00800000E+00  1.20100000E+01  1.20100000E+01
  1.00800000E+00  1.20100000E+01  1.20100000E+01  1.00800000E+00  1.20100000E+01
  1.00800000E+00  1.00800000E+00  1.00800000E+00  1.20100000E+01  1.20100000E+01
  1.20100000E+01  1.20100000E+01  1.20100000E+01  1.00800000E+00  1.20100000E+01
  1.20100000E+01  1.20100000E+01  1.20100000E+01  1.20100000E+01  1.00800000E+00
  1.00800000E+00  1.20100000E+01  1.00800000E+00  1.20100000E+01  1.20100000E+01
  1.00800000E+00  1.00800000E+00  1.00800000E+00  1.20100000E+01  1.20100000E+01
  1.00800000E+00  1.20100000E+01  1.20100000E+01  1.00800000E+00  1.20100000E+01
  1.20100000E+01  1.00800000E+00  1.20100000E+01  1.20100000E+01  1.00800000E+00
  1.20100000E+01  1.00800000E+00  1.00800000E+00  1.00800000E+00  1.20100000E+01
  1.20100000E+01  1.20100000E+01  1.20100000E+01  1.20100000E+01  1.00800000E+00
  1.20100000E+01  1.20100000E+01  1.20100000E+01  1.20100000E+01  1.20100000E+01
  1.00800000E+00  1.00800000E+00  1.20100000E+01  1.00800000E+00  1.20100000E+01
  1.20100000E+01  1.00800000E+00  1.00800000E+00  1.00800000E+00  1.20100000E+01
  1.20100000E+01  1.00800000E+00  1.20100000E+01  1.20100000E+01  1.00800000E+00
  1.20100000E+01  1.20100000E+01  1.00800000E+00  1.20100000E+01  1.20100000E+01
  1.00800000E+00  1.20100000E+01  1.00800000E+00  1.00800000E+00  1.00800000E+00
  1.20100000E+01  1.20100000E+01  1.20100000E+01  1.20100000E+01  1.20100000E+01
  1.00800000E+00  1.20100000E+01  1.20100000E+01  1.20100000E+01  1.20100000E+01
  1.20100000E+01  1.00800000E+00  1.00800000E+00  1.20100000E+01  1.00800000E+00
  1.20100000E+01  1.20100000E+01  1.00800000E+00  1.00800000E+00  1.00800000E+00
  1.20100000E+01  1.20100000E+01  1.00800000E+00  1.20100000E+01  1.20100000E+01
  1.00800000E+00  1.20100000E+01  1.20100000E+01  1.00800000E+00  1.20100000E+01
  1.20100000E+01  1.00800000E+00  1.20100000E+01  1.00800000E+00  1.00800000E+00
  1.00800000E+00  1.20100000E+01  1.20100000E+01  1.20100000E+01  1.20100000E+01
  1.20100000E+01  1.00800000E+00  1.20100000E+01  1.20100000E+01  1.20100000E+01
  1.20100000E+01  1.20100000E+01  1.00800000E+00  1.00800000E+00  1.20100000E+01
  1.00800000E+00  1.20100000E+01  1.20100000E+01  1.00800000E+00  1.00800000E+00
  1.00800000E+00  1.20100000E+01  1.20100000E+01  1.00800000E+00  1.20100000E+01
  1.20100000E+01  1.00800000E+00  1.20100000E+01  1.20100000E+01  1.00800000E+00
  1.20100000E+01  1.20100000E+01  1.00800000E+00  1.20100000E+01  1.00800000E+00
  1.00800000E+00  1.00800000E+00  1.20100000E+01  1.20100000E+01  1.20100000E+01
  1.20100000E+01  1.20100000E+01  1.00800000E+00  1.20100000E+01  1.20100000E+01
  1.20100000E+01  1.20100000E+01  1.20100000E+01  1.00800000E+00  1.00800000E+00
  1.20100000E+01  1.00800000E+00  1.20100000E+01  1.20100000E+01  1.00800000E+00
  1.00800000E+00  1.00800000E+00  1.20100000E+01  1.20100000E+01  1.00800000E+00
  1.20100000E+01  1.20100000E+01  1.00800000E+00  1.20100000E+01  1.20100000E+01
  1.00800000E+00  1.20100000E+01  1.20100000E+01  1.00800000E+00  1.20100000E+01
  1.00800000E+00  1.00800000E+00  1.00800000E+00  1.20100000E+01  1.20100000E+01
  1.20100000E+01  1.20100000E+01  1.20100000E+01  1.00800000E+00  1.20100000E+01
  1.20100000E+01  1.20100000E+01  1.20100000E+01  1.20100000E+01  1.00800000E+00
  1.00800000E+00  1.20100000E+01  1.00800000E+00  1.20100000E+01  1.20100000E+01
  1.00800000E+00  1.00800000E+00  1.00800000E+00  1.20100000E+01  1.20100000E+01
  1.00800000E+00  1.20100000E+01  1.20100000E+01  1.00800000E+00  1.20100000E+01
  1.20100000E+01  1.00800000E+00  1.20100000E+01  1.20100000E+01  1.00800000E+00
  1.20100000E+01  1.00800000E+00  1.00800000E+00  1.00800000E+00  1.20100000E+01
  1.20100000E+01  1.20100000E+01  1.20100000E+01  1.20100000E+01  1.00800000E+00
  1.20100000E+01  1.20100000E+01  1.20100000E+01  1.20100000E+01  1.20100000E+01
  1.00800000E+00  1.00800000E+00  1.20100000E+01  1.00800000E+00  1.20100000E+01
  1.20100000E+01  1.00800000E+00  1.00800000E+00  1.00800000E+00  1.20100000E+01
  1.20100000E+01  1.00800000E+00  1.20100000E+01  1.20100000E+01  1.00800000E+00
  1.20100000E+01  1.20100000E+01  1.00800000E+00  1.20100000E+01  1.20100000E+01
  1.00800000E+00  1.20100000E+01  1.00800000E+00  1.00800000E+00  1.00800000E+00
  1.20100000E+01  1.20100000E+01  1.20100000E+01  1.20100000E+01  1.20100000E+01
  1.00800000E+00  1.20100000E+01  1.20100000E+01  1.20100000E+01  1.20100000E+01
  1.20100000E+01  1.00800000E+00  1.00800000E+00  1.20100000E+01  1.00800000E+00
  1.20100000E+01  1.20100000E+01  1.00800000E+00  1.00800000E+00  1.00800000E+00
  1.20100000E+01  1.20100000E+01  1.00800000E+00  1.20100000E+01  1.20100000E+01
  1.00800000E+00  1.20100000E+01  1.20100000E+01  1.00800000E+00  1.20100000E+01
  1.20100000E+01  1.00800000E+00  1.20100000E+01  1.00800000E+00  1.00800000E+00
  1.00800000E+00  1.20100000E+01  1.20100000E+01  1.20100000E+01  1.20100000E+01
  1.20100000E+01  1.00800000E+00  1.20100000E+01  1.20100000E+01  1.20100000E+01
  1.20100000E+01  1.20100000E+01  1.00800000E+00  1.00800000E+00  1.20100000E+01
  1.00800000E+00  1.20100000E+01  1.20100000E+01  1.00800000E+00  1.00800000E+00
  1.00800000E+00  1.20100000E+01  1.20100000E+01  1.00800000E+00  1.20100000E+01
  1.20100000E+01  1.00800000E+00  1.20100000E+01  1.20100000E+01  1.00800000E+00
  1.20100000E+01  1.20100000E+01  1.00800000E+00  1.20100000E+01  1.00800000E+00
  1.00800000E+00  1.00800000E+00  1.20100000E+01  1.20100000E+01  1.20100000E+01
  1.20100000E+01  1.20100000E+01  1.00800000E+00  1.20100000E+01  1.20100000E+01
  1.20100000E+01  1.20100000E+01  1.20100000E+01  1.00800000E+00  1.00800000E+00
  1.20100000E+01  1.00800000E+00  1.20100000E+01  1.20100000E+01  1.00800000E+00
  1.00800000E+00  1.00800000E+00  1.20100000E+01  1.20100000E+01  1.00800000E+00
  1.20100000E+01  1.20100000E+01  1.00800000E+00  1.20100000E+01  1.20100000E+01
  1.00800000E+00  1.20100000E+01  1.20100000E+01  1.00800000E+00  1.20100000E+01
  1.00800000E+00  1.00800000E+00  1.00800000E+00  1.20100000E+01  1.20100000E+01
  1.20100000E+01  1.20100000E+01  1.20100000E+01  1.00800000E+00  1.20100000E+01
  1.20100000E+01  1.20100000E+01  1.20100000E+01  1.20100000E+01  1.00800000E+00
  1.00800000E+00  1.20100000E+01  1.00800000E+00  1.20100000E+01  1.20100000E+01
  1.00800000E+00  1.00800000E+00  1.00800000E+00  1.20100000E+01  1.20100000E+01
  1.00800000E+00  1.20100000E+01  1.20100000E+01  1.00800000E+00  1.20100000E+01
  1.20100000E+01  1.00800000E+00  1.20100000E+01  1.20100000E+01  1.00800000E+00
  1.20100000E+01  1.00800000E+00  1.00800000E+00  1.00800000E+00  1.20100000E+01
  1.20100000E+01  1.20100000E+01  1.20100000E+01  1.20100000E+01  1.00800000E+00
  1.20100000E+01  1.20100000E+01  1.20100000E+01  1.20100000E+01  1.20100000E+01
  1.00800000E+00  1.00800000E+00  1.20100000E+01  1.00800000E+00  1.20100000E+01
  1.20100000E+01  1.00800000E+00  1.00800000E+00  1.00800000E+00  1.20100000E+01
  1.20100000E+01  1.00800000E+00  1.20100000E+01  1.20100000E+01  1.00800000E+00
  1.20100000E+01  1.20100000E+01  1.00800000E+00  1.20100000E+01  1.20100000E+01
  1.00800000E+00  1.20100000E+01  1.00800000E+00  1.00800000E+00  1.00800000E+00
  1.20100000E+01  1.20100000E+01  1.20100000E+01  1.20100000E+01  1.20100000E+01
  1.00800000E+00  1.20100000E+01  1.20100000E+01  1.20100000E+01  1.20100000E+01
  1.20100000E+01  1.00800000E+00  1.00800000E+00  1.20100000E+01  1.00800000E+00
  1.20100000E+01  1.20100000E+01  1.00800000E+00  1.00800000E+00  1.00800000E+00
  1.20100000E+01  1.20100000E+01  1.00800000E+00  1.20100000E+01  1.20100000E+01
  1.00800000E+00  1.20100000E+01  1.20100000E+01  1.00800000E+00  1.20100000E+01
  1.20100000E+01  1.00800000E+00  1.20100000E+01  1.00800000E+00  1.00800000E+00
  1.00800000E+00  1.20100000E+01  1.20100000E+01  1.20100000E+01  1.20100000E+01
  1.20100000E+01  1.00800000E+00  1.20100000E+01  1.20100000E+01  1.20100000E+01
  1.20100000E+01  1.20100000E+01  1.00800000E+00  1.00800000E+00  1.20100000E+01
  1.00800000E+00  1.20100000E+01  1.20100000E+01  1.00800000E+00  1.00800000E+00
  1.00800000E+00  1.20100000E+01  1.20100000E+01  1.00800000E+00  1.20100000E+01
  1.20100000E+01  1.00800000E+00  1.20100000E+01  1.20100000E+01  1.00800000E+00
  1.20100000E+01  1.20100000E+01  1.00800000E+00  1.20100000E+01  1.00800000E+00
  1.00800000E+00  1.00800000E+00  1.20100000E+01  1.20100000E+01  1.20100000E+01
  1.20100000E+01  1.20100000E+01  1.00800000E+00  1.20100000E+01  1.20100000E+01
  1.20100000E+01  1.20100000E+01  1.20100000E+01  1.00800000E+00  1.00800000E+00
  1.20100000E+01  1.00800000E+00  1.20100000E+01  1.20100000E+01  1.00800000E+00
  1.00800000E+00  1.00800000E+00  1.20100000E+01  1.20100000E+01  1.00800000E+00
  1.20100000E+01  1.20100000E+01  1.00800000E+00  1.20100000E+01  1.20100000E+01
  1.00800000E+00  1.20100000E+01  1.20100000E+01  1.00800000E+00  1.20100000E+01
  1.00800000E+00  1.00800000E+00  1.00800000E+00  1.20100000E+01  1.20100000E+01
  1.20100000E+01  1.20100000E+01  1.20100000E+01  1.00800000E+00  1.20100000E+01
  1.20100000E+01  1.20100000E+01  1.20100000E+01  1.20100000E+01  1.00800000E+00
  1.00800000E+00  1.20100000E+01  1.00800000E+00  1.20100000E+01  1.20100000E+01
  1.00800000E+00  1.00800000E+00  1.00800000E+00  1.20100000E+01  1.20100000E+01
  1.00800000E+00  1.20100000E+01  1.20100000E+01  1.00800000E+00  1.20100000E+01
  1.20100000E+01  1.00800000E+00  1.20100000E+01  1.20100000E+01  1.00800000E+00
  1.20100000E+01  1.00800000E+00  1.00800000E+00  1.00800000E+00  1.20100000E+01
  1.20100000E+01  1.20100000E+01  1.20100000E+01  1.20100000E+01  1.00800000E+00
  1.20100000E+01  1.20100000E+01  1.20100000E+01  1.20100000E+01  1.20100000E+01
  1.00800000E+00  1.00800000E+00  1.20100000E+01  1.00800000E+00  1.20100000E+01
  1.20100000E+01  1.00800000E+00  1.00800000E+00  1.00800000E+00  1.20100000E+01
  1.20100000E+01  1.00800000E+00  1.20100000E+01  1.20100000E+01  1.00800000E+00
  1.20100000E+01  1.20100000E+01  1.00800000E+00  1.20100000E+01  1.20100000E+01
  1.00800000E+00  1.20100000E+01  1.00800000E+00  1.00800000E+00  1.00800000E+00
  1.20100000E+01  1.20100000E+01  1.20100000E+01  1.20100000E+01  1.20100000E+01
  1.00800000E+00  1.20100000E+01  1.20100000E+01  1.20100000E+01  1.20100000E+01
  1.20100000E+01  1.00800000E+00  1.00800000E+00  1.20100000E+01  1.00800000E+00
  1.20100000E+01  1.20100000E+01  1.00800000E+00  1.00800000E+00  1.00800000E+00
  1.20100000E+01  1.20100000E+01  1.00800000E+00  1.20100000E+01  1.20100000E+01
  1.00800000E+00  1.20100000E+01  1.20100000E+01  1.00800000E+00  1.20100000E+01
  1.20100000E+01  1.00800000E+00  1.20100000E+01  1.00800000E+00  1.00800000E+00
  1.00800000E+00  1.20100000E+01  1.20100000E+01  1.20100000E+01  1.20100000E+01
  1.20100000E+01  1.00800000E+00  1.20100000E+01  1.20100000E+01  1.20100000E+01
  1.20100000E+01  1.20100000E+01  1.00800000E+00  1.00800000E+00  1.20100000E+01
  1.00800000E+00  1.20100000E+01  1.20100000E+01  1.00800000E+00  1.00800000E+00
  1.00800000E+00  1.20100000E+01  1.20100000E+01  1.00800000E+00  1.20100000E+01
  1.20100000E+01  1.00800000E+00  1.20100000E+01  1.20100000E+01  1.00800000E+00
  1.20100000E+01  1.20100000E+01  1.00800000E+00  1.20100000E+01  1.00800000E+00
  1.00800000E+00  1.00800000E+00  1.20100000E+01  1.20100000E+01  1.20100000E+01
  1.20100000E+01  1.20100000E+01  1.00800000E+00  1.20100000E+01  1.20100000E+01
  1.20100000E+01  1.20100000E+01  1.20100000E+01  1.00800000E+00  1.00800000E+00
  1.20100000E+01  1.00800000E+00  1.20100000E+01  1.20100000E+01  1.00800000E+00
  1.00800000E+00  1.00800000E+00  1.20100000E+01  1.20100000E+01  1.00800000E+00
  1.20100000E+01  1.20100000E+01  1.00800000E+00  1.20100000E+01  1.20100000E+01
  1.00800000E+00  1.20100000E+01  1.20100000E+01  1.00800000E+00  1.20100000E+01
  1.00800000E+00  1.00800000E+00  1.00800000E+00  1.20100000E+01  1.20100000E+01
  1.20100000E+01  1.20100000E+01  1.20100000E+01  1.00800000E+00  1.20100000E+01
  1.20100000E+01  1.20100000E+01  1.20100000E+01  1.20100000E+01  1.00800000E+00
  1.00800000E+00  1.20100000E+01  1.00800000E+00  1.20100000E+01  1.20100000E+01
  1.00800000E+00  1.00800000E+00  1.00800000E+00  1.20100000E+01  1.20100000E+01
  1.00800000E+00  1.20100000E+01  1.20100000E+01  1.00800000E+00  1.20100000E+01
  1.20100000E+01  1.00800000E+00  1.20100000E+01  1.20100000E+01  1.00800000E+00
  1.20100000E+01  1.00800000E+00  1.00800000E+00  1.00800000E+00  1.20100000E+01
  1.20100000E+01  1.20100000E+01  1.20100000E+01  1.20100000E+01  1.00800000E+00
  1.20100000E+01  1.20100000E+01  1.20100000E+01  1.20100000E+01  1.20100000E+01
  1.00800000E+00  1.00800000E+00  1.20100000E+01  1.00800000E+00  1.20100000E+01
  1.20100000E+01  1.00800000E+00  1.00800000E+00  1.00800000E+00  1.20100000E+01
  1.20100000E+01  1.00800000E+00  1.20100000E+01  1.20100000E+01  1.00800000E+00
  1.20100000E+01  1.20100000E+01  1.00800000E+00  1.20100000E+01  1.20100000E+01
  1.00800000E+00  1.20100000E+01  1.00800000E+00  1.00800000E+00  1.00800000E+00
  1.20100000E+01  1.20100000E+01  1.20100000E+01  1.20100000E+01  1.20100000E+01
  1.00800000E+00  1.20100000E+01  1.20100000E+01  1.20100000E+01  1.20100000E+01
  1.20100000E+01  1.00800000E+00  1.00800000E+00  1.20100000E+01  1.00800000E+00
  1.20100000E+01  1.20100000E+01  1.00800000E+00  1.00800000E+00  1.00800000E+00
  1.20100000E+01  1.20100000E+01  1.00800000E+00  1.20100000E+01  1.20100000E+01
  1.00800000E+00  1.20100000E+01  1.20100000E+01  1.00800000E+00  1.20100000E+01
  1.20100000E+01  1.00800000E+00  1.20100000E+01  1.00800000E+00  1.00800000E+00
  1.00800000E+00  1.20100000E+01  1.20100000E+01  1.20100000E+01  1.20100000E+01
  1.20100000E+01  1.00800000E+00  1.20100000E+01  1.20100000E+01  1.20100000E+01
  1.20100000E+01  1.20100000E+01  1.00800000E+00  1.00800000E+00  1.20100000E+01
  1.00800000E+00  1.20100000E+01  1.20100000E+01  1.00800000E+00  1.00800000E+00
  1.00800000E+00  1.20100000E+01  1.20100000E+01  1.00800000E+00  1.20100000E+01
  1.20100000E+01  1.00800000E+00  1.20100000E+01  1.20100000E+01  1.00800000E+00
  1.20100000E+01  1.20100000E+01  1.00800000E+00  1.20100000E+01  1.00800000E+00
  1.00800000E+00  1.00800000E+00  1.20100000E+01  1.20100000E+01  1.20100000E+01
  1.20100000E+01  1.20100000E+01  1.00800000E+00  1.20100000E+01  1.20100000E+01
  1.20100000E+01  1.20100000E+01  1.20100000E+01  1.00800000E+00  1.00800000E+00
  1.20100000E+01  1.00800000E+00  1.20100000E+01  1.20100000E+01  1.00800000E+00
  1.00800000E+00  1.00800000E+00  1.20100000E+01  1.20100000E+01  1.00800000E+00
  1.20100000E+01  1.20100000E+01  1.00800000E+00  1.20100000E+01  1.20100000E+01
  1.00800000E+00  1.20100000E+01  1.20100000E+01  1.00800000E+00  1.20100000E+01
  1.00800000E+00  1.00800000E+00  1.00800000E+00  1.20100000E+01  1.20100000E+01
  1.20100000E+01  1.20100000E+01  1.20100000E+01  1.00800000E+00  1.20100000E+01
  1.20100000E+01  1.20100000E+01  1.20100000E+01  1.20100000E+01  1.00800000E+00
  1.00800000E+00  1.20100000E+01  1.00800000E+00  1.20100000E+01  1.20100000E+01
  1.00800000E+00  1.00800000E+00  1.00800000E+00  1.20100000E+01  1.20100000E+01
  1.00800000E+00  1.20100000E+01  1.20100000E+01  1.00800000E+00  1.20100000E+01
  1.20100000E+01  1.00800000E+00  1.20100000E+01  1.20100000E+01  1.00800000E+00
  1.20100000E+01  1.00800000E+00  1.00800000E+00  1.00800000E+00  1.20100000E+01
  1.20100000E+01  1.20100000E+01  1.20100000E+01  1.20100000E+01  1.00800000E+00
  1.20100000E+01  1.20100000E+01  1.20100000E+01  1.20100000E+01  1.20100000E+01
  1.00800000E+00  1.00800000E+00  1.20100000E+01  1.00800000E+00  1.20100000E+01
  1.20100000E+01  1.00800000E+00  1.00800000E+00  1.00800000E+00  1.20100000E+01
  1.20100000E+01  1.00800000E+00  1.20100000E+01  1.20100000E+01  1.00800000E+00
  1.20100000E+01  1.20100000E+01  1.00800000E+00  1.20100000E+01  1.20100000E+01
  1.00800000E+00  1.20100000E+01  1.00800000E+00  1.00800000E+00  1.00800000E+00
  1.20100000E+01  1.20100000E+01  1.20100000E+01  1.20100000E+01  1.20100000E+01
  1.00800000E+00  1.20100000E+01  1.20100000E+01  1.20100000E+01  1.20100000E+01
  1.20100000E+01  1.00800000E+00  1.00800000E+00  1.20100000E+01  1.00800000E+00
  1.20100000E+01  1.20100000E+01  1.00800000E+00  1.00800000E+00  1.00800000E+00
  1.20100000E+01  1.20100000E+01  1.00800000E+00  1.20100000E+01  1.20100000E+01
  1.00800000E+00  1.20100000E+01  1.20100000E+01  1.00800000E+00  1.20100000E+01
  1.20100000E+01  1.00800000E+00  1.20100000E+01  1.00800000E+00  1.00800000E+00
  1.00800000E+00  1.20100000E+01  1.20100000E+01  1.20100000E+01  1.20100000E+01
  1.20100000E+01  1.00800000E+00  1.20100000E+01  1.20100000E+01  1.20100000E+01
  1.20100000E+01  1.20100000E+01  1.00800000E+00  1.00800000E+00  1.20100000E+01
  1.00800000E+00  1.20100000E+01  1.20100000E+01  1.00800000E+00  1.00800000E+00
  1.00800000E+00  1.20100000E+01  1.20100000E+01  1.00800000E+00  1.20100000E+01
  1.20100000E+01  1.00800000E+00  1.20100000E+01  1.20100000E+01  1.00800000E+00
  1.20100000E+01  1.20100000E+01  1.00800000E+00  1.20100000E+01  1.00800000E+00
  1.00800000E+00  1.00800000E+00  1.20100000E+01  1.20100000E+01  1.20100000E+01
  1.20100000E+01  1.20100000E+01  1.00800000E+00  1.20100000E+01  1.20100000E+01
  1.20100000E+01  1.20100000E+01  1.20100000E+01  1.00800000E+00  1.00800000E+00
  1.20100000E+01  1.00800000E+00  1.20100000E+01  1.20100000E+01  1.00800000E+00
  1.00800000E+00  1.00800000E+00  1.20100000E+01  1.20100000E+01  1.00800000E+00
  1.20100000E+01  1.20100000E+01  1.00800000E+00  1.20100000E+01  1.20100000E+01
  1.00800000E+00  1.20100000E+01  1.20100000E+01  1.00800000E+00  1.20100000E+01
  1.00800000E+00  1.00800000E+00  1.00800000E+00  1.20100000E+01  1.20100000E+01
  1.20100000E+01  1.20100000E+01  1.20100000E+01  1.00800000E+00  1.20100000E+01
  1.20100000E+01  1.20100000E+01  1.20100000E+01  1.20100000E+01  1.00800000E+00
  1.00800000E+00  1.20100000E+01  1.00800000E+00  1.20100000E+01  1.20100000E+01
  1.00800000E+00  1.00800000E+00  1.00800000E+00  1.20100000E+01  1.20100000E+01
  1.00800000E+00  1.20100000E+01  1.20100000E+01  1.00800000E+00  1.20100000E+01
  1.20100000E+01  1.00800000E+00  1.20100000E+01  1.20100000E+01  1.00800000E+00
  1.20100000E+01  1.00800000E+00  1.00800000E+00  1.00800000E+00  1.20100000E+01
  1.20100000E+01  1.20100000E+01  1.20100000E+01  1.20100000E+01  1.00800000E+00
  1.20100000E+01  1.20100000E+01  1.20100000E+01  1.20100000E+01  1.20100000E+01
  1.00800000E+00  1.00800000E+00  1.20100000E+01  1.00800000E+00  1.20100000E+01
  1.20100000E+01  1.00800000E+00  1.00800000E+00  1.00800000E+00  1.20100000E+01
  1.20100000E+01  1.00800000E+00  1.20100000E+01  1.20100000E+01  1.00800000E+00
  1.20100000E+01  1.20100000E+01  1.00800000E+00  1.20100000E+01  1.20100000E+01
  1.00800000E+00  1.20100000E+01  1.00800000E+00  1.00800000E+00  1.00800000E+00
  1.20100000E+01  1.20100000E+01  1.20100000E+01  1.20100000E+01  1.20100000E+01
  1.00800000E+00  1.20100000E+01  1.20100000E+01  1.20100000E+01  1.20100000E+01
  1.20100000E+01  1.00800000E+00  1.00800000E+00  1.20100000E+01  1.00800000E+00
  1.20100000E+01  1.20100000E+01  1.00800000E+00  1.00800000E+00  1.00800000E+00
  1.20100000E+01  1.20100000E+01  1.00800000E+00  1.20100000E+01  1.20100000E+01
  1.00800000E+00  1.20100000E+01  1.20100000E+01  1.00800000E+00  1.20100000E+01
  1.20100000E+01  1.00800000E+00  1.20100000E+01  1.00800000E+00  1.00800000E+00
  1.00800000E+00  1.20100000E+01  1.20100000E+01  1.20100000E+01  1.20100000E+01
  1.20100000E+01  1.00800000E+00  1.20100000E+01  1.20100000E+01  1.20100000E+01
  1.20100000E+01  1.20100000E+01  1.00800000E+00  1.00800000E+00  1.20100000E+01
  1.00800000E+00  1.20100000E+01  1.20100000E+01  1.00800000E+00  1.00800000E+00
  1.00800000E+00  1.20100000E+01  1.20100000E+01  1.00800000E+00  1.20100000E+01
  1.20100000E+01  1.00800000E+00  1.20100000E+01  1.20100000E+01  1.00800000E+00
  1.20100000E+01  1.20100000E+01  1.00800000E+00  1.20100000E+01  1.00800000E+00
  1.00800000E+00  1.00800000E+00  1.20100000E+01  1.20100000E+01  1.20100000E+01
  1.20100000E+01  1.20100000E+01  1.00800000E+00  1.20100000E+01  1.20100000E+01
  1.20100000E+01  1.20100000E+01  1.20100000E+01  1.00800000E+00  1.00800000E+00
  1.20100000E+01  1.00800000E+00  1.20100000E+01  1.20100000E+01  1.00800000E+00
  1.00800000E+00  1.00800000E+00  1.20100000E+01  1.20100000E+01  1.00800000E+00
  1.20100000E+01  1.20100000E+01  1.00800000E+00  1.20100000E+01  1.20100000E+01
  1.00800000E+00  1.20100000E+01  1.20100000E+01  1.00800000E+00  1.20100000E+01
  1.00800000E+00  1.00800000E+00  1.00800000E+00  1.20100000E+01  1.20100000E+01
  1.20100000E+01  1.20100000E+01  1.20100000E+01  1.00800000E+00  1.20100000E+01
  1.20100000E+01  1.20100000E+01  1.20100000E+01  1.20100000E+01  1.00800000E+00
  1.00800000E+00  1.20100000E+01  1.00800000E+00  1.20100000E+01  1.20100000E+01
  1.00800000E+00  1.00800000E+00  1.00800000E+00  1.20100000E+01  1.20100000E+01
  1.00800000E+00  1.20100000E+01  1.20100000E+01  1.00800000E+00  1.20100000E+01
  1.20100000E+01  1.00800000E+00  1.20100000E+01  1.20100000E+01  1.00800000E+00
  1.20100000E+01  1.00800000E+00  1.00800000E+00  1.00800000E+00  1.20100000E+01
  1.20100000E+01  1.20100000E+01  1.20100000E+01  1.20100000E+01  1.00800000E+00
  1.20100000E+01  1.20100000E+01  1.20100000E+01  1.20100000E+01  1.20100000E+01
  1.00800000E+00  1.00800000E+00  1.20100000E+01  1.00800000E+00  1.20100000E+01
  1.20100000E+01  1.00800000E+00  1.00800000E+00  1.00800000E+00  1.20100000E+01
  1.20100000E+01  1.00800000E+00  1.20100000E+01  1.20100000E+01  1.00800000E+00
  1.20100000E+01  1.20100000E+01  1.00800000E+00  1.20100000E+01  1.20100000E+01
  1.00800000E+00  1.20100000E+01  1.00800000E+00  1.00800000E+00  1.00800000E+00
  1.20100000E+01  1.20100000E+01  1.20100000E+01  1.20100000E+01  1.20100000E+01
  1.00800000E+00  1.20100000E+01  1.20100000E+01  1.20100000E+01  1.20100000E+01
  1.20100000E+01  1.00800000E+00  1.00800000E+00  1.20100000E+01  1.00800000E+00
  1.20100000E+01  1.20100000E+01  1.00800000E+00  1.00800000E+00  1.00800000E+00
  1.20100000E+01  1.20100000E+01  1.00800000E+00  1.20100000E+01  1.20100000E+01
  1.00800000E+00  1.20100000E+01  1.20100000E+01  1.00800000E+00  1.20100000E+01
  1.20100000E+01  1.00800000E+00  1.20100000E+01  1.00800000E+00  1.00800000E+00
  1.00800000E+00  1.20100000E+01  1.20100000E+01  1.20100000E+01  1.20100000E+01
  1.20100000E+01  1.00800000E+00  1.20100000E+01  1.20100000E+01  1.20100000E+01
  1.20100000E+01  1.20100000E+01  1.00800000E+00  1.00800000E+00  1.20100000E+01
  1.00800000E+00  1.20100000E+01  1.20100000E+01  1.00800000E+00  1.00800000E+00
  1.00800000E+00  1.20100000E+01  1.20100000E+01  1.00800000E+00  1.20100000E+01
  1.20100000E+01  1.00800000E+00  1.20100000E+01  1.20100000E+01  1.00800000E+00
  1.20100000E+01  1.20100000E+01  1.00800000E+00  1.20100000E+01  1.00800000E+00
  1.00800000E+00  1.00800000E+00  1.20100000E+01  1.20100000E+01  1.20100000E+01
  1.20100000E+01  1.20100000E+01  1.00800000E+00  1.20100000E+01  1.20100000E+01
  1.20100000E+01  1.20100000E+01  1.20100000E+01  1.00800000E+00  1.00800000E+00
  1.20100000E+01  1.00800000E+00  1.20100000E+01  1.20100000E+01  1.00800000E+00
  1.00800000E+00  1.00800000E+00  1.20100000E+01  1.20100000E+01  1.00800000E+00
  1.20100000E+01  1.20100000E+01  1.00800000E+00  1.20100000E+01  1.20100000E+01
  1.00800000E+00  1.20100000E+01  1.20100000E+01  1.00800000E+00  1.20100000E+01
  1.00800000E+00  1.00800000E+00  1.00800000E+00  1.20100000E+01  1.20100000E+01
  1.20100000E+01  1.20100000E+01  1.20100000E+01  1.00800000E+00  1.20100000E+01
  1.20100000E+01  1.20100000E+01  1.20100000E+01  1.20100000E+01  1.00800000E+00
  1.00800000E+00  1.20100000E+01  1.00800000E+00  1.20100000E+01  1.20100000E+01
  1.00800000E+00  1.00800000E+00  1.00800000E+00  1.20100000E+01  1.20100000E+01
  1.00800000E+00  1.20100000E+01  1.20100000E+01  1.00800000E+00  1.20100000E+01
  1.20100000E+01  1.00800000E+00  1.20100000E+01  1.20100000E+01  1.00800000E+00
  1.20100000E+01  1.00800000E+00  1.00800000E+00  1.00800000E+00  1.20100000E+01
  1.20100000E+01  1.20100000E+01  1.20100000E+01  1.20100000E+01  1.00800000E+00
  1.20100000E+01  1.20100000E+01  1.20100000E+01  1.20100000E+01  1.20100000E+01
  1.00800000E+00  1.00800000E+00  1.20100000E+01  1.00800000E+00  1.20100000E+01
  1.20100000E+01  1.00800000E+00  1.00800000E+00  1.00800000E+00  1.20100000E+01
  1.20100000E+01  1.00800000E+00  1.20100000E+01  1.20100000E+01  1.00800000E+00
  1.20100000E+01  1.20100000E+01  1.00800000E+00  1.20100000E+01  1.20100000E+01
  1.00800000E+00  1.20100000E+01  1.00800000E+00  1.00800000E+00  1.00800000E+00
  1.20100000E+01  1.20100000E+01  1.20100000E+01  1.20100000E+01  1.20100000E+01
  1.00800000E+00  1.20100000E+01  1.20100000E+01  1.20100000E+01  1.20100000E+01
  1.20100000E+01  1.00800000E+00  1.00800000E+00  1.20100000E+01  1.00800000E+00
  1.20100000E+01  1.20100000E+01  1.00800000E+00  1.00800000E+00  1.00800000E+00
  1.20100000E+01  1.20100000E+01  1.00800000E+00  1.20100000E+01  1.20100000E+01
  1.00800000E+00  1.20100000E+01  1.20100000E+01  1.00800000E+00  1.20100000E+01
  1.20100000E+01  1.00800000E+00  1.20100000E+01  1.00800000E+00  1.00800000E+00
  1.00800000E+00  1.20100000E+01  1.20100000E+01  1.20100000E+01  1.20100000E+01
  1.20100000E+01  1.00800000E+00  1.20100000E+01  1.20100000E+01  1.20100000E+01
  1.20100000E+01  1.20100000E+01  1.00800000E+00  1.00800000E+00  1.20100000E+01
  1.00800000E+00  1.20100000E+01  1.20100000E+01  1.00800000E+00  1.00800000E+00
  1.00800000E+00  1.20100000E+01  1.20100000E+01  1.00800000E+00  1.20100000E+01
  1.20100000E+01  1.00800000E+00  1.20100000E+01  1.20100000E+01  1.00800000E+00
  1.20100000E+01  1.20100000E+01  1.00800000E+00  1.20100000E+01  1.00800000E+00
  1.00800000E+00  1.00800000E+00  1.20100000E+01  1.20100000E+01  1.20100000E+01
  1.20100000E+01  1.20100000E+01  1.00800000E+00  1.20100000E+01  1.20100000E+01
  1.20100000E+01  1.20100000E+01  1.20100000E+01  1.00800000E+00  1.00800000E+00
  1.20100000E+01  1.00800000E+00  1.20100000E+01  1.20100000E+01  1.00800000E+00
  1.00800000E+00  1.00800000E+00  1.20100000E+01  1.20100000E+01  1.00800000E+00
  1.20100000E+01  1.20100000E+01  1.00800000E+00  1.20100000E+01  1.20100000E+01
  1.00800000E+00  1.20100000E+01  1.20100000E+01  1.00800000E+00  1.20100000E+01
  1.00800000E+00  1.00800000E+00  1.00800000E+00  1.20100000E+01  1.20100000E+01
  1.20100000E+01  1.20100000E+01  1.20100000E+01  1.00800000E+00  1.20100000E+01
  1.20100000E+01  1.20100000E+01  1.20100000E+01  1.20100000E+01  1.00800000E+00
  1.00800000E+00  1.20100000E+01  1.00800000E+00  1.20100000E+01  1.20100000E+01
  1.00800000E+00  1.00800000E+00  1.00800000E+00  1.20100000E+01  1.20100000E+01
  1.00800000E+00  1.20100000E+01  1.20100000E+01  1.00800000E+00  1.20100000E+01
  1.20100000E+01  1.00800000E+00  1.20100000E+01  1.20100000E+01  1.00800000E+00
  1.20100000E+01  1.00800000E+00  1.00800000E+00  1.00800000E+00  1.20100000E+01
  1.20100000E+01  1.20100000E+01  1.20100000E+01  1.20100000E+01  1.00800000E+00
  1.20100000E+01  1.20100000E+01  1.20100000E+01  1.20100000E+01  1.20100000E+01
  1.00800000E+00  1.00800000E+00  1.20100000E+01  1.00800000E+00  1.20100000E+01
  1.20100000E+01  1.00800000E+00  1.00800000E+00  1.00800000E+00  1.20100000E+01
  1.20100000E+01  1.00800000E+00  1.20100000E+01  1.20100000E+01  1.00800000E+00
  1.20100000E+01  1.20100000E+01  1.00800000E+00  1.20100000E+01  1.20100000E+01
  1.00800000E+00  1.20100000E+01  1.00800000E+00  1.00800000E+00  1.00800000E+00
  1.20100000E+01  1.20100000E+01  1.20100000E+01  1.20100000E+01  1.20100000E+01
  1.00800000E+00  1.20100000E+01  1.20100000E+01  1.20100000E+01  1.20100000E+01
  1.20100000E+01  1.00800000E+00  1.00800000E+00  1.20100000E+01  1.00800000E+00
  1.20100000E+01  1.20100000E+01  1.00800000E+00  1.00800000E+00  1.00800000E+00
  1.20100000E+01  1.20100000E+01  1.00800000E+00  1.20100000E+01  1.20100000E+01
  1.00800000E+00  1.20100000E+01  1.20100000E+01  1.00800000E+00  1.20100000E+01
  1.20100000E+01  1.00800000E+00  1.20100000E+01  1.00800000E+00  1.00800000E+00
  1.00800000E+00  1.20100000E+01  1.20100000E+01  1.20100000E+01  1.20100000E+01
  1.20100000E+01  1.00800000E+00  1.20100000E+01  1.20100000E+01  1.20100000E+01
  1.20100000E+01  1.20100000E+01  1.00800000E+00  1.00800000E+00  1.20100000E+01
  1.00800000E+00  1.20100000E+01  1.20100000E+01  1.00800000E+00  1.00800000E+00
  1.00800000E+00  1.20100000E+01  1.20100000E+01  1.00800000E+00  1.20100000E+01
  1.20100000E+01  1.00800000E+00  1.20100000E+01  1.20100000E+01  1.00800000E+00
  1.20100000E+01  1.20100000E+01  1.00800000E+00  1.20100000E+01  1.00800000E+00
  1.00800000E+00  1.00800000E+00  1.20100000E+01  1.20100000E+01  1.20100000E+01
  1.20100000E+01  1.20100000E+01  1.00800000E+00  1.20100000E+01  1.20100000E+01
  1.20100000E+01  1.20100000E+01  1.20100000E+01  1.00800000E+00  1.00800000E+00
  1.20100000E+01  1.00800000E+00  1.20100000E+01  1.20100000E+01  1.00800000E+00
  1.00800000E+00  1.00800000E+00  1.20100000E+01  1.20100000E+01  1.00800000E+00
  1.20100000E+01  1.20100000E+01  1.00800000E+00  1.20100000E+01  1.20100000E+01
  1.00800000E+00  1.20100000E+01  1.20100000E+01  1.00800000E+00  1.20100000E+01
  1.00800000E+00  1.00800000E+00  1.00800000E+00  1.20100000E+01  1.20100000E+01
  1.20100000E+01  1.20100000E+01  1.20100000E+01  1.00800000E+00  1.20100000E+01
  1.20100000E+01  1.20100000E+01  1.20100000E+01  1.20100000E+01  1.00800000E+00
  1.00800000E+00  1.20100000E+01  1.00800000E+00  1.20100000E+01  1.20100000E+01
  1.00800000E+00  1.00800000E+00  1.00800000E+00  1.20100000E+01  1.20100000E+01
  1.00800000E+00  1.20100000E+01  1.20100000E+01  1.00800000E+00  1.20100000E+01
  1.20100000E+01  1.00800000E+00  1.20100000E+01  1.20100000E+01  1.00800000E+00
  1.20100000E+01  1.00800000E+00  1.00800000E+00  1.00800000E+00  1.20100000E+01
  1.20100000E+01  1.20100000E+01  1.20100000E+01  1.20100000E+01  1.00800000E+00
  1.20100000E+01  1.20100000E+01  1.20100000E+01  1.20100000E+01  1.20100000E+01
  1.00800000E+00  1.00800000E+00  1.20100000E+01  1.00800000E+00  1.20100000E+01
  1.20100000E+01  1.00800000E+00  1.00800000E+00  1.00800000E+00  1.20100000E+01
  1.20100000E+01  1.00800000E+00  1.20100000E+01  1.20100000E+01  1.00800000E+00
  1.20100000E+01  1.20100000E+01  1.00800000E+00  1.20100000E+01  1.20100000E+01
  1.00800000E+00  1.20100000E+01  1.00800000E+00  1.00800000E+00  1.00800000E+00
  1.20100000E+01  1.20100000E+01  1.20100000E+01  1.20100000E+01  1.20100000E+01
  1.00800000E+00  1.20100000E+01  1.20100000E+01  1.20100000E+01  1.20100000E+01
  1.20100000E+01  1.00800000E+00  1.00800000E+00  1.20100000E+01  1.00800000E+00
  1.20100000E+01  1.20100000E+01  1.00800000E+00  1.00800000E+00  1.00800000E+00
  1.20100000E+01  1.20100000E+01  1.00800000E+00  1.20100000E+01  1.20100000E+01
  1.00800000E+00  1.20100000E+01  1.20100000E+01  1.00800000E+00  1.20100000E+01
  1.20100000E+01  1.00800000E+00  1.20100000E+01  1.00800000E+00  1.00800000E+00
  1.00800000E+00  1.20100000E+01  1.20100000E+01  1.20100000E+01  1.20100000E+01
  1.20100000E+01  1.00800000E+00  1.20100000E+01  1.20100000E+01  1.20100000E+01
  1.20100000E+01  1.20100000E+01  1.00800000E+00  1.00800000E+00  1.20100000E+01
  1.00800000E+00  1.20100000E+01  1.20100000E+01  1.00800000E+00  1.00800000E+00
  1.00800000E+00  1.20100000E+01  1.20100000E+01  1.00800000E+00  1.20100000E+01
  1.20100000E+01  1.00800000E+00  1.20100000E+01  1.20100000E+01  1.00800000E+00
  1.20100000E+01  1.20100000E+01  1.00800000E+00  1.20100000E+01  1.00800000E+00
  1.00800000E+00  1.00800000E+00  1.20100000E+01  1.20100000E+01  1.20100000E+01
  1.20100000E+01  1.20100000E+01  1.00800000E+00  1.20100000E+01  1.20100000E+01
  1.20100000E+01  1.20100000E+01  1.20100000E+01  1.00800000E+00  1.00800000E+00
  1.20100000E+01  1.00800000E+00  1.20100000E+01  1.20100000E+01  1.00800000E+00
  1.00800000E+00  1.00800000E+00  1.20100000E+01  1.20100000E+01  1.00800000E+00
  1.20100000E+01  1.20100000E+01  1.00800000E+00  1.20100000E+01  1.20100000E+01
  1.00800000E+00  1.20100000E+01  1.20100000E+01  1.00800000E+00  1.20100000E+01
  1.00800000E+00  1.00800000E+00  1.00800000E+00  1.20100000E+01  1.20100000E+01
  1.20100000E+01  1.20100000E+01  1.20100000E+01  1.00800000E+00  1.20100000E+01
  1.20100000E+01  1.20100000E+01  1.20100000E+01  1.20100000E+01  1.00800000E+00
  1.00800000E+00  1.20100000E+01  1.00800000E+00  1.20100000E+01  1.20100000E+01
  1.00800000E+00  1.00800000E+00  1.00800000E+00  1.20100000E+01  1.20100000E+01
  1.00800000E+00  1.20100000E+01  1.20100000E+01  1.00800000E+00  1.20100000E+01
  1.20100000E+01  1.00800000E+00  1.20100000E+01  1.20100000E+01  1.00800000E+00
  1.20100000E+01  1.00800000E+00  1.00800000E+00  1.00800000E+00  1.20100000E+01
  1.20100000E+01  1.20100000E+01  1.20100000E+01  1.20100000E+01  1.00800000E+00
  1.20100000E+01  1.20100000E+01  1.20100000E+01  1.20100000E+01  1.20100000E+01
  1.00800000E+00  1.00800000E+00  1.20100000E+01  1.00800000E+00  1.20100000E+01
  1.20100000E+01  1.00800000E+00  1.00800000E+00  1.00800000E+00  1.20100000E+01
  1.20100000E+01  1.00800000E+00  1.20100000E+01  1.20100000E+01  1.00800000E+00
  1.20100000E+01  1.20100000E+01  1.00800000E+00  1.20100000E+01  1.20100000E+01
  1.00800000E+00  1.20100000E+01  1.00800000E+00  1.00800000E+00  1.00800000E+00
  1.20100000E+01  1.20100000E+01  1.20100000E+01  1.20100000E+01  1.20100000E+01
  1.00800000E+00  1.20100000E+01  1.20100000E+01  1.20100000E+01  1.20100000E+01
  1.20100000E+01  1.00800000E+00  1.00800000E+00  1.20100000E+01  1.00800000E+00
  1.20100000E+01  1.20100000E+01  1.00800000E+00  1.00800000E+00  1.00800000E+00
  1.20100000E+01  1.20100000E+01  1.00800000E+00  1.20100000E+01  1.20100000E+01
  1.00800000E+00  1.20100000E+01  1.20100000E+01  1.00800000E+00  1.20100000E+01
  1.20100000E+01  1.00800000E+00  1.20100000E+01  1.00800000E+00  1.00800000E+00
  1.00800000E+00  1.20100000E+01  1.20100000E+01  1.20100000E+01  1.20100000E+01
  1.20100000E+01  1.00800000E+00  1.20100000E+01  1.20100000E+01  1.20100000E+01
  1.20100000E+01  1.20100000E+01  1.00800000E+00  1.00800000E+00  1.20100000E+01
  1.00800000E+00  1.20100000E+01  1.20100000E+01  1.00800000E+00  1.00800000E+00
  1.00800000E+00  1.20100000E+01  1.20100000E+01  1.00800000E+00  1.20100000E+01
  1.20100000E+01  1.00800000E+00  1.20100000E+01  1.20100000E+01  1.00800000E+00
  1.20100000E+01  1.20100000E+01  1.00800000E+00  1.20100000E+01  1.00800000E+00
  1.00800000E+00  1.00800000E+00  1.20100000E+01  1.20100000E+01  1.20100000E+01
  1.20100000E+01  1.20100000E+01  1.00800000E+00  1.20100000E+01  1.20100000E+01
  1.20100000E+01  1.20100000E+01  1.20100000E+01  1.00800000E+00  1.00800000E+00
  1.20100000E+01  1.00800000E+00  1.20100000E+01  1.20100000E+01  1.00800000E+00
  1.00800000E+00  1.00800000E+00  1.20100000E+01  1.20100000E+01  1.00800000E+00
  1.20100000E+01  1.20100000E+01  1.00800000E+00  1.20100000E+01  1.20100000E+01
  1.00800000E+00  1.20100000E+01  1.20100000E+01  1.00800000E+00  1.20100000E+01
  1.00800000E+00  1.00800000E+00  1.00800000E+00  1.20100000E+01  1.20100000E+01
  1.20100000E+01  1.20100000E+01  1.20100000E+01  1.00800000E+00  1.20100000E+01
  1.20100000E+01  1.20100000E+01  1.20100000E+01  1.20100000E+01  1.00800000E+00
  1.00800000E+00  1.20100000E+01  1.00800000E+00  1.20100000E+01  1.20100000E+01
  1.00800000E+00  1.00800000E+00  1.00800000E+00  1.20100000E+01  1.20100000E+01
  1.00800000E+00  1.20100000E+01  1.20100000E+01  1.00800000E+00  1.20100000E+01
  1.20100000E+01  1.00800000E+00  1.20100000E+01  1.20100000E+01  1.00800000E+00
  1.20100000E+01  1.00800000E+00  1.00800000E+00  1.00800000E+00  1.20100000E+01
  1.20100000E+01  1.20100000E+01  1.20100000E+01  1.20100000E+01  1.00800000E+00
  1.20100000E+01  1.20100000E+01  1.20100000E+01  1.20100000E+01  1.20100000E+01
  1.00800000E+00  1.00800000E+00  1.20100000E+01  1.00800000E+00  1.20100000E+01
  1.20100000E+01  1.00800000E+00  1.00800000E+00  1.00800000E+00  1.20100000E+01
  1.20100000E+01  1.00800000E+00  1.20100000E+01  1.20100000E+01  1.00800000E+00
  1.20100000E+01  1.20100000E+01  1.00800000E+00  1.20100000E+01  1.20100000E+01
  1.00800000E+00  1.20100000E+01  1.00800000E+00  1.00800000E+00  1.00800000E+00
  1.20100000E+01  1.20100000E+01  1.20100000E+01  1.20100000E+01  1.20100000E+01
  1.00800000E+00  1.20100000E+01  1.20100000E+01  1.20100000E+01  1.20100000E+01
  1.20100000E+01  1.00800000E+00  1.00800000E+00  1.20100000E+01  1.00800000E+00
  1.20100000E+01  1.20100000E+01  1.00800000E+00  1.00800000E+00  1.00800000E+00
  1.20100000E+01  1.20100000E+01  1.00800000E+00  1.20100000E+01  1.20100000E+01
  1.00800000E+00  1.20100000E+01  1.20100000E+01  1.00800000E+00  1.20100000E+01
  1.20100000E+01  1.00800000E+00  1.20100000E+01  1.00800000E+00  1.00800000E+00
  1.00800000E+00  1.20100000E+01  1.20100000E+01  1.20100000E+01  1.20100000E+01
  1.20100000E+01  1.00800000E+00  1.20100000E+01  1.20100000E+01  1.20100000E+01
  1.20100000E+01  1.20100000E+01  1.00800000E+00  1.00800000E+00  1.20100000E+01
  1.00800000E+00  1.20100000E+01  1.20100000E+01  1.00800000E+00  1.00800000E+00
  1.00800000E+00  1.20100000E+01  1.20100000E+01  1.00800000E+00  1.20100000E+01
  1.20100000E+01  1.00800000E+00  1.20100000E+01  1.20100000E+01  1.00800000E+00
  1.20100000E+01  1.20100000E+01  1.00800000E+00  1.20100000E+01  1.00800000E+00
  1.00800000E+00  1.00800000E+00  1.20100000E+01  1.20100000E+01  1.20100000E+01
  1.20100000E+01  1.20100000E+01  1.00800000E+00  1.20100000E+01  1.20100000E+01
  1.20100000E+01  1.20100000E+01  1.20100000E+01  1.00800000E+00  1.00800000E+00
  1.20100000E+01  1.00800000E+00  1.20100000E+01  1.20100000E+01  1.00800000E+00
  1.00800000E+00  1.00800000E+00  1.20100000E+01  1.20100000E+01  1.00800000E+00
  1.20100000E+01  1.20100000E+01  1.00800000E+00  1.20100000E+01  1.20100000E+01
  1.00800000E+00  1.20100000E+01  1.20100000E+01  1.00800000E+00  1.20100000E+01
  1.00800000E+00  1.00800000E+00  1.00800000E+00  1.20100000E+01  1.20100000E+01
  1.20100000E+01  1.20100000E+01  1.20100000E+01  1.00800000E+00  1.20100000E+01
  1.20100000E+01  1.20100000E+01  1.20100000E+01  1.20100000E+01  1.00800000E+00
  1.00800000E+00  1.20100000E+01  1.00800000E+00  1.20100000E+01  1.20100000E+01
  1.00800000E+00  1.00800000E+00  1.00800000E+00  1.20100000E+01  1.20100000E+01
  1.00800000E+00  1.20100000E+01  1.20100000E+01  1.00800000E+00  1.20100000E+01
  1.20100000E+01  1.00800000E+00  1.20100000E+01  1.20100000E+01  1.00800000E+00
  1.20100000E+01  1.00800000E+00  1.00800000E+00  1.00800000E+00  1.20100000E+01
  1.20100000E+01  1.20100000E+01  1.20100000E+01  1.20100000E+01  1.00800000E+00
  1.20100000E+01  1.20100000E+01  1.20100000E+01  1.20100000E+01  1.20100000E+01
  1.00800000E+00  1.00800000E+00  1.20100000E+01  1.00800000E+00  1.20100000E+01
  1.20100000E+01  1.00800000E+00  1.00800000E+00  1.00800000E+00  1.20100000E+01
  1.20100000E+01  1.00800000E+00  1.20100000E+01  1.20100000E+01  1.00800000E+00
  1.20100000E+01  1.20100000E+01  1.00800000E+00  1.20100000E+01  1.20100000E+01
  1.00800000E+00  1.20100000E+01  1.00800000E+00  1.00800000E+00  1.00800000E+00
  1.20100000E+01  1.20100000E+01  1.20100000E+01  1.20100000E+01  1.20100000E+01
  1.00800000E+00  1.20100000E+01  1.20100000E+01  1.20100000E+01  1.20100000E+01
  1.20100000E+01  1.00800000E+00  1.00800000E+00  1.20100000E+01  1.00800000E+00
  1.20100000E+01  1.20100000E+01  1.00800000E+00  1.00800000E+00  1.00800000E+00
  1.20100000E+01  1.20100000E+01  1.00800000E+00  1.20100000E+01  1.20100000E+01
  1.00800000E+00  1.20100000E+01  1.20100000E+01  1.00800000E+00  1.20100000E+01
  1.20100000E+01  1.00800000E+00  1.20100000E+01  1.00800000E+00  1.00800000E+00
  1.00800000E+00  1.20100000E+01  1.20100000E+01  1.20100000E+01  1.20100000E+01
  1.20100000E+01  1.00800000E+00  1.20100000E+01  1.20100000E+01  1.20100000E+01
  1.20100000E+01  1.20100000E+01  1.00800000E+00  1.00800000E+00  1.20100000E+01
  1.00800000E+00  1.20100000E+01  1.20100000E+01  1.00800000E+00  1.00800000E+00
  1.00800000E+00  1.20100000E+01  1.20100000E+01  1.00800000E+00  1.20100000E+01
  1.20100000E+01  1.00800000E+00  1.20100000E+01  1.20100000E+01  1.00800000E+00
  1.20100000E+01  1.20100000E+01  1.00800000E+00  1.20100000E+01  1.00800000E+00
  1.00800000E+00  1.00800000E+00  1.20100000E+01  1.20100000E+01  1.20100000E+01
  1.20100000E+01  1.20100000E+01  1.00800000E+00  1.20100000E+01  1.20100000E+01
  1.20100000E+01  1.20100000E+01  1.20100000E+01  1.00800000E+00  1.00800000E+00
  1.20100000E+01  1.00800000E+00  1.20100000E+01  1.20100000E+01  1.00800000E+00
  1.00800000E+00  1.00800000E+00  1.20100000E+01  1.20100000E+01  1.00800000E+00
  1.20100000E+01  1.20100000E+01  1.00800000E+00  1.20100000E+01  1.20100000E+01
  1.00800000E+00  1.20100000E+01  1.20100000E+01  1.00800000E+00  1.20100000E+01
  1.00800000E+00  1.00800000E+00  1.00800000E+00  1.20100000E+01  1.20100000E+01
  1.20100000E+01  1.20100000E+01  1.20100000E+01  1.00800000E+00  1.20100000E+01
  1.20100000E+01  1.20100000E+01  1.20100000E+01  1.20100000E+01  1.00800000E+00
  1.00800000E+00  1.20100000E+01  1.00800000E+00  1.20100000E+01  1.20100000E+01
  1.00800000E+00  1.00800000E+00  1.00800000E+00  1.20100000E+01  1.20100000E+01
  1.00800000E+00  1.20100000E+01  1.20100000E+01  1.00800000E+00  1.20100000E+01
  1.20100000E+01  1.00800000E+00  1.20100000E+01  1.20100000E+01  1.00800000E+00
  1.20100000E+01  1.00800000E+00  1.00800000E+00  1.00800000E+00  1.20100000E+01
  1.20100000E+01  1.20100000E+01  1.20100000E+01  1.20100000E+01  1.00800000E+00
  1.20100000E+01  1.20100000E+01  1.20100000E+01  1.20100000E+01  1.20100000E+01
  1.00800000E+00  1.00800000E+00  1.20100000E+01  1.00800000E+00  1.20100000E+01
  1.20100000E+01  1.00800000E+00  1.00800000E+00  1.00800000E+00  1.20100000E+01
  1.20100000E+01  1.00800000E+00  1.20100000E+01  1.20100000E+01  1.00800000E+00
  1.20100000E+01  1.20100000E+01  1.00800000E+00  1.20100000E+01  1.20100000E+01
  1.00800000E+00  1.20100000E+01  1.00800000E+00  1.00800000E+00  1.00800000E+00
  1.20100000E+01  1.20100000E+01  1.20100000E+01  1.20100000E+01  1.20100000E+01
  1.00800000E+00  1.20100000E+01  1.20100000E+01  1.20100000E+01  1.20100000E+01
  1.20100000E+01  1.00800000E+00  1.00800000E+00  1.20100000E+01  1.00800000E+00
  1.20100000E+01  1.20100000E+01  1.00800000E+00  1.00800000E+00  1.00800000E+00
  1.20100000E+01  1.20100000E+01  1.00800000E+00  1.20100000E+01  1.20100000E+01
  1.00800000E+00  1.20100000E+01  1.20100000E+01  1.00800000E+00  1.20100000E+01
  1.20100000E+01  1.00800000E+00  1.20100000E+01  1.00800000E+00  1.00800000E+00
  1.00800000E+00  1.20100000E+01  1.20100000E+01  1.20100000E+01  1.20100000E+01
  1.20100000E+01  1.00800000E+00  1.20100000E+01  1.20100000E+01  1.20100000E+01
  1.20100000E+01  1.20100000E+01  1.00800000E+00  1.00800000E+00  1.20100000E+01
  1.00800000E+00  1.20100000E+01  1.20100000E+01  1.00800000E+00  1.00800000E+00
  1.00800000E+00  1.20100000E+01  1.20100000E+01  1.00800000E+00  1.20100000E+01
  1.20100000E+01  1.00800000E+00  1.20100000E+01  1.20100000E+01  1.00800000E+00
  1.20100000E+01  1.20100000E+01  1.00800000E+00  1.20100000E+01  1.00800000E+00
  1.00800000E+00  1.00800000E+00  1.20100000E+01  1.20100000E+01  1.20100000E+01
  1.20100000E+01  1.20100000E+01  1.00800000E+00  1.20100000E+01  1.20100000E+01
  1.20100000E+01  1.20100000E+01  1.20100000E+01  1.00800000E+00  1.00800000E+00
  1.20100000E+01  1.00800000E+00  1.20100000E+01  1.20100000E+01  1.00800000E+00
  1.00800000E+00  1.00800000E+00  1.20100000E+01  1.20100000E+01  1.00800000E+00
  1.20100000E+01  1.20100000E+01  1.00800000E+00  1.20100000E+01  1.20100000E+01
  1.00800000E+00  1.20100000E+01  1.20100000E+01  1.00800000E+00  1.20100000E+01
  1.00800000E+00  1.00800000E+00  1.00800000E+00  1.20100000E+01  1.20100000E+01
  1.20100000E+01  1.20100000E+01  1.20100000E+01  1.00800000E+00  1.20100000E+01
  1.20100000E+01  1.20100000E+01  1.20100000E+01  1.20100000E+01  1.00800000E+00
  1.00800000E+00  1.20100000E+01  1.00800000E+00  1.20100000E+01  1.20100000E+01
  1.00800000E+00  1.00800000E+00  1.00800000E+00  1.20100000E+01  1.20100000E+01
  1.00800000E+00  1.20100000E+01  1.20100000E+01  1.00800000E+00  1.20100000E+01
  1.20100000E+01  1.00800000E+00  1.20100000E+01  1.20100000E+01  1.00800000E+00
  1.20100000E+01  1.00800000E+00  1.00800000E+00  1.00800000E+00  1.20100000E+01
  1.20100000E+01  1.20100000E+01  1.20100000E+01  1.20100000E+01  1.00800000E+00
  1.20100000E+01  1.20100000E+01  1.20100000E+01  1.20100000E+01  1.20100000E+01
  1.00800000E+00  1.00800000E+00  1.20100000E+01  1.00800000E+00  1.20100000E+01
  1.20100000E+01  1.00800000E+00  1.00800000E+00  1.00800000E+00  1.20100000E+01
  1.20100000E+01  1.00800000E+00  1.20100000E+01  1.20100000E+01  1.00800000E+00
  1.20100000E+01  1.20100000E+01  1.00800000E+00  1.20100000E+01  1.20100000E+01
  1.00800000E+00  1.20100000E+01  1.00800000E+00  1.00800000E+00  1.00800000E+00
  1.20100000E+01  1.20100000E+01  1.20100000E+01  1.20100000E+01  1.20100000E+01
  1.00800000E+00  1.20100000E+01  1.20100000E+01  1.20100000E+01  1.20100000E+01
  1.20100000E+01  1.00800000E+00  1.00800000E+00  1.20100000E+01  1.00800000E+00
  1.20100000E+01  1.20100000E+01  1.00800000E+00  1.00800000E+00  1.00800000E+00
  1.20100000E+01  1.20100000E+01  1.00800000E+00  1.20100000E+01  1.20100000E+01
  1.00800000E+00  1.20100000E+01  1.20100000E+01  1.00800000E+00  1.20100000E+01
  1.20100000E+01  1.00800000E+00  1.20100000E+01  1.00800000E+00  1.00800000E+00
  1.00800000E+00  1.20100000E+01  1.20100000E+01  1.20100000E+01  1.20100000E+01
  1.20100000E+01  1.00800000E+00  1.20100000E+01  1.20100000E+01  1.20100000E+01
  1.20100000E+01  1.20100000E+01  1.00800000E+00  1.00800000E+00  1.20100000E+01
  1.00800000E+00  1.20100000E+01  1.20100000E+01  1.00800000E+00  1.00800000E+00
  1.00800000E+00  1.20100000E+01  1.20100000E+01  1.00800000E+00  1.20100000E+01
  1.20100000E+01  1.00800000E+00  1.20100000E+01  1.20100000E+01  1.00800000E+00
  1.20100000E+01  1.20100000E+01  1.00800000E+00  1.20100000E+01  1.00800000E+00
  1.00800000E+00  1.00800000E+00  1.20100000E+01  1.20100000E+01  1.20100000E+01
  1.20100000E+01  1.20100000E+01  1.00800000E+00  1.20100000E+01  1.20100000E+01
  1.20100000E+01  1.20100000E+01  1.20100000E+01  1.00800000E+00  1.00800000E+00
  1.20100000E+01  1.00800000E+00  1.20100000E+01  1.20100000E+01  1.00800000E+00
  1.00800000E+00  1.00800000E+00  1.20100000E+01  1.20100000E+01  1.00800000E+00
  1.20100000E+01  1.20100000E+01  1.00800000E+00  1.20100000E+01  1.20100000E+01
  1.00800000E+00  1.20100000E+01  1.20100000E+01  1.00800000E+00  1.20100000E+01
  1.00800000E+00  1.00800000E+00  1.00800000E+00  1.20100000E+01  1.20100000E+01
  1.20100000E+01  1.20100000E+01  1.20100000E+01  1.00800000E+00  1.20100000E+01
  1.20100000E+01  1.20100000E+01  1.20100000E+01  1.20100000E+01  1.00800000E+00
  1.00800000E+00  1.20100000E+01  1.00800000E+00  1.20100000E+01  1.20100000E+01
  1.00800000E+00  1.00800000E+00  1.00800000E+00  1.20100000E+01  1.20100000E+01
  1.00800000E+00  1.20100000E+01  1.20100000E+01  1.00800000E+00  1.20100000E+01
  1.20100000E+01  1.00800000E+00  1.20100000E+01  1.20100000E+01  1.00800000E+00
  1.20100000E+01  1.00800000E+00  1.00800000E+00  1.00800000E+00  1.20100000E+01
  1.20100000E+01  1.20100000E+01  1.20100000E+01  1.20100000E+01  1.00800000E+00
  1.20100000E+01  1.20100000E+01  1.20100000E+01  1.20100000E+01  1.20100000E+01
  1.00800000E+00  1.00800000E+00  1.20100000E+01  1.00800000E+00  1.20100000E+01
  1.20100000E+01  1.00800000E+00  1.00800000E+00  1.00800000E+00  1.20100000E+01
  1.20100000E+01  1.00800000E+00  1.20100000E+01  1.20100000E+01  1.00800000E+00
  1.20100000E+01  1.20100000E+01  1.00800000E+00  1.20100000E+01  1.20100000E+01
  1.00800000E+00  1.20100000E+01  1.00800000E+00  1.00800000E+00  1.00800000E+00
  1.20100000E+01  1.20100000E+01  1.20100000E+01  1.20100000E+01  1.20100000E+01
  1.00800000E+00  1.20100000E+01  1.20100000E+01  1.20100000E+01  1.20100000E+01
  1.20100000E+01  1.00800000E+00  1.00800000E+00  1.20100000E+01  1.00800000E+00
  1.20100000E+01  1.20100000E+01  1.00800000E+00  1.00800000E+00  1.00800000E+00
  1.20100000E+01  1.20100000E+01  1.00800000E+00  1.20100000E+01  1.20100000E+01
  1.00800000E+00  1.20100000E+01  1.20100000E+01  1.00800000E+00  1.20100000E+01
  1.20100000E+01  1.00800000E+00  1.20100000E+01  1.00800000E+00  1.00800000E+00
  1.00800000E+00  1.20100000E+01  1.20100000E+01  1.20100000E+01  1.20100000E+01
  1.20100000E+01  1.00800000E+00  1.20100000E+01  1.20100000E+01  1.20100000E+01
  1.20100000E+01  1.20100000E+01  1.00800000E+00  1.00800000E+00  1.20100000E+01
  1.00800000E+00  1.20100000E+01  1.20100000E+01  1.00800000E+00  1.00800000E+00
  1.00800000E+00  1.20100000E+01  1.20100000E+01  1.00800000E+00  1.20100000E+01
  1.20100000E+01  1.00800000E+00  1.20100000E+01  1.20100000E+01  1.00800000E+00
  1.20100000E+01  1.20100000E+01  1.00800000E+00  1.20100000E+01  1.00800000E+00
  1.00800000E+00  1.00800000E+00  1.20100000E+01  1.20100000E+01  1.20100000E+01
  1.20100000E+01  1.20100000E+01  1.00800000E+00  1.20100000E+01  1.20100000E+01
  1.20100000E+01  1.20100000E+01  1.20100000E+01  1.00800000E+00  1.00800000E+00
  1.20100000E+01  1.00800000E+00  1.20100000E+01  1.20100000E+01  1.00800000E+00
  1.00800000E+00  1.00800000E+00  1.20100000E+01  1.20100000E+01  1.00800000E+00
  1.20100000E+01  1.20100000E+01  1.00800000E+00  1.20100000E+01  1.20100000E+01
  1.00800000E+00  1.20100000E+01  1.20100000E+01  1.00800000E+00  1.20100000E+01
  1.00800000E+00  1.00800000E+00  1.00800000E+00  1.20100000E+01  1.20100000E+01
  1.20100000E+01  1.20100000E+01  1.20100000E+01  1.00800000E+00  1.20100000E+01
  1.20100000E+01  1.20100000E+01  1.20100000E+01  1.20100000E+01  1.00800000E+00
  1.00800000E+00  1.20100000E+01  1.00800000E+00  1.20100000E+01  1.20100000E+01
  1.00800000E+00  1.00800000E+00  1.00800000E+00  1.20100000E+01  1.20100000E+01
  1.00800000E+00  1.20100000E+01  1.20100000E+01  1.00800000E+00  1.20100000E+01
  1.20100000E+01  1.00800000E+00  1.20100000E+01  1.20100000E+01  1.00800000E+00
  1.20100000E+01  1.00800000E+00  1.00800000E+00  1.00800000E+00  1.20100000E+01
  1.20100000E+01  1.20100000E+01  1.20100000E+01  1.20100000E+01  1.00800000E+00
  1.20100000E+01  1.20100000E+01  1.20100000E+01  1.20100000E+01  1.20100000E+01
  1.00800000E+00  1.00800000E+00  1.20100000E+01  1.00800000E+00  1.20100000E+01
  1.20100000E+01  1.00800000E+00  1.00800000E+00  1.00800000E+00  1.20100000E+01
  1.20100000E+01  1.00800000E+00  1.20100000E+01  1.20100000E+01  1.00800000E+00
  1.20100000E+01  1.20100000E+01  1.00800000E+00  1.20100000E+01  1.20100000E+01
  1.00800000E+00  1.20100000E+01  1.00800000E+00  1.00800000E+00  1.00800000E+00
  1.20100000E+01  1.20100000E+01  1.20100000E+01  1.20100000E+01  1.20100000E+01
  1.00800000E+00  1.20100000E+01  1.20100000E+01  1.20100000E+01  1.20100000E+01
  1.20100000E+01  1.00800000E+00  1.00800000E+00  1.20100000E+01  1.00800000E+00
  1.20100000E+01  1.20100000E+01  1.00800000E+00  1.00800000E+00  1.00800000E+00
  1.20100000E+01  1.20100000E+01  1.00800000E+00  1.20100000E+01  1.20100000E+01
  1.00800000E+00  1.20100000E+01  1.20100000E+01  1.00800000E+00  1.20100000E+01
  1.20100000E+01  1.00800000E+00  1.20100000E+01  1.00800000E+00  1.00800000E+00
  1.00800000E+00  1.20100000E+01  1.20100000E+01  1.20100000E+01  1.20100000E+01
  1.20100000E+01  1.00800000E+00  1.20100000E+01  1.20100000E+01  1.20100000E+01
  1.20100000E+01  1.20100000E+01  1.00800000E+00  1.00800000E+00  1.20100000E+01
  1.00800000E+00  1.20100000E+01  1.20100000E+01  1.00800000E+00  1.00800000E+00
  1.00800000E+00  1.20100000E+01  1.20100000E+01  1.00800000E+00  1.20100000E+01
  1.20100000E+01  1.00800000E+00  1.20100000E+01  1.20100000E+01  1.00800000E+00
  1.20100000E+01  1.20100000E+01  1.00800000E+00  1.20100000E+01  1.00800000E+00
  1.00800000E+00  1.00800000E+00  1.20100000E+01  1.20100000E+01  1.20100000E+01
  1.20100000E+01  1.20100000E+01  1.00800000E+00  1.20100000E+01  1.20100000E+01
  1.20100000E+01  1.20100000E+01  1.20100000E+01  1.00800000E+00  1.00800000E+00
  1.20100000E+01  1.00800000E+00  1.20100000E+01  1.20100000E+01  1.00800000E+00
  1.00800000E+00  1.00800000E+00  1.20100000E+01  1.20100000E+01  1.00800000E+00
  1.20100000E+01  1.20100000E+01  1.00800000E+00  1.20100000E+01  1.20100000E+01
  1.00800000E+00  1.20100000E+01  1.20100000E+01  1.00800000E+00  1.20100000E+01
  1.00800000E+00  1.00800000E+00  1.00800000E+00  1.20100000E+01  1.20100000E+01
  1.20100000E+01  1.20100000E+01  1.20100000E+01  1.00800000E+00  1.20100000E+01
  1.20100000E+01  1.20100000E+01  1.20100000E+01  1.20100000E+01  1.00800000E+00
  1.00800000E+00  1.20100000E+01  1.00800000E+00  1.20100000E+01  1.20100000E+01
  1.00800000E+00  1.00800000E+00  1.00800000E+00  1.20100000E+01  1.20100000E+01
  1.00800000E+00  1.20100000E+01  1.20100000E+01  1.00800000E+00  1.20100000E+01
  1.20100000E+01  1.00800000E+00  1.20100000E+01  1.20100000E+01  1.00800000E+00
  1.20100000E+01  1.00800000E+00  1.00800000E+00  1.00800000E+00  1.20100000E+01
  1.20100000E+01  1.20100000E+01  1.20100000E+01  1.20100000E+01  1.00800000E+00
  1.20100000E+01  1.20100000E+01  1.20100000E+01  1.20100000E+01  1.20100000E+01
  1.00800000E+00  1.00800000E+00  1.20100000E+01  1.00800000E+00  1.20100000E+01
  1.20100000E+01  1.00800000E+00  1.00800000E+00  1.00800000E+00  1.20100000E+01
  1.20100000E+01  1.00800000E+00  1.20100000E+01  1.20100000E+01  1.00800000E+00
  1.20100000E+01  1.20100000E+01  1.00800000E+00  1.20100000E+01  1.20100000E+01
  1.00800000E+00  1.20100000E+01  1.00800000E+00  1.00800000E+00  1.00800000E+00
  1.20100000E+01  1.20100000E+01  1.20100000E+01  1.20100000E+01  1.20100000E+01
  1.00800000E+00  1.20100000E+01  1.20100000E+01  1.20100000E+01  1.20100000E+01
  1.20100000E+01  1.00800000E+00  1.00800000E+00  1.20100000E+01  1.00800000E+00
  1.20100000E+01  1.20100000E+01  1.00800000E+00  1.00800000E+00  1.00800000E+00
  1.20100000E+01  1.20100000E+01  1.00800000E+00  1.20100000E+01  1.20100000E+01
  1.00800000E+00  1.20100000E+01  1.20100000E+01  1.00800000E+00  1.20100000E+01
  1.20100000E+01  1.00800000E+00  1.20100000E+01  1.00800000E+00  1.00800000E+00
  1.00800000E+00  1.20100000E+01  1.20100000E+01  1.20100000E+01  1.20100000E+01
  1.20100000E+01  1.00800000E+00  1.20100000E+01  1.20100000E+01  1.20100000E+01
  1.20100000E+01  1.20100000E+01  1.00800000E+00  1.00800000E+00  1.20100000E+01
  1.00800000E+00  1.20100000E+01  1.20100000E+01  1.00800000E+00  1.00800000E+00
  1.00800000E+00  1.20100000E+01  1.20100000E+01  1.00800000E+00  1.20100000E+01
  1.20100000E+01  1.00800000E+00  1.20100000E+01  1.20100000E+01  1.00800000E+00
  1.20100000E+01  1.20100000E+01  1.00800000E+00  1.20100000E+01  1.00800000E+00
  1.00800000E+00  1.00800000E+00  1.20100000E+01  1.20100000E+01  1.20100000E+01
  1.20100000E+01  1.20100000E+01  1.00800000E+00  1.20100000E+01  1.20100000E+01
  1.20100000E+01  1.20100000E+01  1.20100000E+01  1.00800000E+00  1.00800000E+00
  1.20100000E+01  1.00800000E+00  1.20100000E+01  1.20100000E+01  1.00800000E+00
  1.00800000E+00  1.00800000E+00  1.20100000E+01  1.20100000E+01  1.00800000E+00
  1.20100000E+01  1.20100000E+01  1.00800000E+00  1.20100000E+01  1.20100000E+01
  1.00800000E+00  1.20100000E+01  1.20100000E+01  1.00800000E+00  1.20100000E+01
  1.00800000E+00  1.00800000E+00  1.00800000E+00  1.20100000E+01  1.20100000E+01
  1.20100000E+01  1.20100000E+01  1.20100000E+01  1.00800000E+00  1.20100000E+01
  1.20100000E+01  1.20100000E+01  1.20100000E+01  1.20100000E+01  1.00800000E+00
  1.00800000E+00  1.20100000E+01  1.00800000E+00  1.20100000E+01  1.20100000E+01
  1.00800000E+00  1.00800000E+00  1.00800000E+00  1.20100000E+01  1.20100000E+01
  1.00800000E+00  1.20100000E+01  1.20100000E+01  1.00800000E+00  1.20100000E+01
  1.20100000E+01  1.00800000E+00  1.20100000E+01  1.20100000E+01  1.00800000E+00
  1.20100000E+01  1.00800000E+00  1.00800000E+00  1.00800000E+00  1.20100000E+01
  1.20100000E+01  1.20100000E+01  1.20100000E+01  1.20100000E+01  1.00800000E+00
  1.20100000E+01  1.20100000E+01  1.20100000E+01  1.20100000E+01  1.20100000E+01
  1.00800000E+00  1.00800000E+00  1.20100000E+01  1.00800000E+00  1.20100000E+01
  1.20100000E+01  1.00800000E+00  1.00800000E+00  1.00800000E+00  1.20100000E+01
  1.20100000E+01  1.00800000E+00  1.20100000E+01  1.20100000E+01  1.00800000E+00
  1.20100000E+01  1.20100000E+01  1.00800000E+00  1.20100000E+01  1.20100000E+01
  1.00800000E+00  1.20100000E+01  1.00800000E+00  1.00800000E+00  1.00800000E+00
  1.20100000E+01  1.20100000E+01  1.20100000E+01  1.20100000E+01  1.20100000E+01
  1.00800000E+00  1.20100000E+01  1.20100000E+01  1.20100000E+01  1.20100000E+01
  1.20100000E+01  1.00800000E+00  1.00800000E+00  1.20100000E+01  1.00800000E+00
  1.20100000E+01  1.20100000E+01  1.00800000E+00  1.00800000E+00  1.00800000E+00
  1.20100000E+01  1.20100000E+01  1.00800000E+00  1.20100000E+01  1.20100000E+01
  1.00800000E+00  1.20100000E+01  1.20100000E+01  1.00800000E+00  1.20100000E+01
  1.20100000E+01  1.00800000E+00  1.20100000E+01  1.00800000E+00  1.00800000E+00
  1.00800000E+00  1.20100000E+01  1.20100000E+01  1.20100000E+01  1.20100000E+01
  1.20100000E+01  1.00800000E+00  1.20100000E+01  1.20100000E+01  1.20100000E+01
  1.20100000E+01  1.20100000E+01  1.00800000E+00  1.00800000E+00  1.20100000E+01
  1.00800000E+00  1.20100000E+01  1.20100000E+01  1.00800000E+00  1.00800000E+00
  1.00800000E+00  1.20100000E+01  1.20100000E+01  1.00800000E+00  1.20100000E+01
  1.20100000E+01  1.00800000E+00  1.20100000E+01  1.20100000E+01  1.00800000E+00
  1.20100000E+01  1.20100000E+01  1.00800000E+00  1.20100000E+01  1.00800000E+00
  1.00800000E+00  1.00800000E+00  1.20100000E+01  1.20100000E+01  1.20100000E+01
  1.20100000E+01  1.20100000E+01  1.00800000E+00  1.20100000E+01  1.20100000E+01
  1.20100000E+01  1.20100000E+01  1.20100000E+01  1.00800000E+00  1.00800000E+00
  1.20100000E+01  1.00800000E+00  1.20100000E+01  1.20100000E+01  1.00800000E+00
  1.00800000E+00  1.00800000E+00  1.20100000E+01  1.20100000E+01  1.00800000E+00
  1.20100000E+01  1.20100000E+01  1.00800000E+00  1.20100000E+01  1.20100000E+01
  1.00800000E+00  1.20100000E+01  1.20100000E+01  1.00800000E+00  1.20100000E+01
  1.00800000E+00  1.00800000E+00  1.00800000E+00  1.20100000E+01  1.20100000E+01
  1.20100000E+01  1.20100000E+01  1.20100000E+01  1.00800000E+00  1.20100000E+01
  1.20100000E+01  1.20100000E+01  1.20100000E+01  1.20100000E+01  1.00800000E+00
  1.00800000E+00  1.20100000E+01  1.00800000E+00  1.20100000E+01  1.20100000E+01
  1.00800000E+00  1.00800000E+00  1.00800000E+00  1.20100000E+01  1.20100000E+01
  1.00800000E+00  1.20100000E+01  1.20100000E+01  1.00800000E+00  1.20100000E+01
  1.20100000E+01  1.00800000E+00  1.20100000E+01  1.20100000E+01  1.00800000E+00
  1.20100000E+01  1.00800000E+00  1.00800000E+00  1.00800000E+00  1.20100000E+01
  1.20100000E+01  1.20100000E+01  1.20100000E+01  1.20100000E+01  1.00800000E+00
  1.20100000E+01  1.20100000E+01  1.20100000E+01  1.20100000E+01  1.20100000E+01
  1.00800000E+00  1.00800000E+00  1.20100000E+01  1.00800000E+00  1.20100000E+01
  1.20100000E+01  1.00800000E+00  1.00800000E+00  1.00800000E+00  1.20100000E+01
  1.20100000E+01  1.00800000E+00  1.20100000E+01  1.20100000E+01  1.00800000E+00
  1.20100000E+01  1.20100000E+01  1.00800000E+00  1.20100000E+01  1.20100000E+01
  1.00800000E+00  1.20100000E+01  1.00800000E+00  1.00800000E+00  1.00800000E+00
  1.20100000E+01  1.20100000E+01  1.20100000E+01  1.20100000E+01  1.20100000E+01
  1.00800000E+00  1.20100000E+01  1.20100000E+01  1.20100000E+01  1.20100000E+01
  1.20100000E+01  1.00800000E+00  1.00800000E+00  1.20100000E+01  1.00800000E+00
  1.20100000E+01  1.20100000E+01  1.00800000E+00  1.00800000E+00  1.00800000E+00
  1.20100000E+01  1.20100000E+01  1.00800000E+00  1.20100000E+01  1.20100000E+01
  1.00800000E+00  1.20100000E+01  1.20100000E+01  1.00800000E+00  1.20100000E+01
  1.20100000E+01  1.00800000E+00  1.20100000E+01  1.00800000E+00  1.00800000E+00
  1.00800000E+00  1.20100000E+01  1.20100000E+01  1.20100000E+01  1.20100000E+01
  1.20100000E+01  1.00800000E+00  1.20100000E+01  1.20100000E+01  1.20100000E+01
  1.20100000E+01  1.20100000E+01  1.00800000E+00  1.00800000E+00  1.20100000E+01
  1.00800000E+00  1.20100000E+01  1.20100000E+01  1.00800000E+00  1.00800000E+00
  1.00800000E+00  1.20100000E+01  1.20100000E+01  1.00800000E+00  1.20100000E+01
  1.20100000E+01  1.00800000E+00  1.20100000E+01  1.20100000E+01  1.00800000E+00
  1.20100000E+01  1.20100000E+01  1.00800000E+00  1.20100000E+01  1.00800000E+00
  1.00800000E+00  1.00800000E+00  1.20100000E+01  1.20100000E+01  1.20100000E+01
  1.20100000E+01  1.20100000E+01  1.00800000E+00  1.20100000E+01  1.20100000E+01
  1.20100000E+01  1.20100000E+01  1.20100000E+01  1.00800000E+00  1.00800000E+00
  1.20100000E+01  1.00800000E+00  1.20100000E+01  1.20100000E+01  1.00800000E+00
  1.00800000E+00  1.00800000E+00  1.20100000E+01  1.20100000E+01  1.00800000E+00
  1.20100000E+01  1.20100000E+01  1.00800000E+00  1.20100000E+01  1.20100000E+01
  1.00800000E+00  1.20100000E+01  1.20100000E+01  1.00800000E+00  1.20100000E+01
  1.00800000E+00  1.00800000E+00  1.00800000E+00  1.20100000E+01  1.20100000E+01
  1.20100000E+01  1.20100000E+01  1.20100000E+01  1.00800000E+00  1.20100000E+01
  1.20100000E+01  1.20100000E+01  1.20100000E+01  1.20100000E+01  1.00800000E+00
  1.00800000E+00  1.20100000E+01  1.00800000E+00  1.20100000E+01  1.20100000E+01
  1.00800000E+00  1.00800000E+00  1.00800000E+00  1.20100000E+01  1.20100000E+01
  1.00800000E+00  1.20100000E+01  1.20100000E+01  1.00800000E+00  1.20100000E+01
  1.20100000E+01  1.00800000E+00  1.20100000E+01  1.20100000E+01  1.00800000E+00
  1.20100000E+01  1.00800000E+00  1.00800000E+00  1.00800000E+00  1.20100000E+01
  1.20100000E+01  1.20100000E+01  1.20100000E+01  1.20100000E+01  1.00800000E+00
  1.20100000E+01  1.20100000E+01  1.20100000E+01  1.20100000E+01  1.20100000E+01
  1.00800000E+00  1.00800000E+00  1.20100000E+01  1.00800000E+00  1.20100000E+01
  1.20100000E+01  1.00800000E+00  1.00800000E+00  1.00800000E+00  1.20100000E+01
  1.20100000E+01  1.00800000E+00  1.20100000E+01  1.20100000E+01  1.00800000E+00
  1.20100000E+01  1.20100000E+01  1.00800000E+00  1.20100000E+01  1.20100000E+01
  1.00800000E+00  1.20100000E+01  1.00800000E+00  1.00800000E+00  1.00800000E+00
  1.20100000E+01  1.20100000E+01  1.20100000E+01  1.20100000E+01  1.20100000E+01
  1.00800000E+00  1.20100000E+01  1.20100000E+01  1.20100000E+01  1.20100000E+01
  1.20100000E+01  1.00800000E+00  1.00800000E+00  1.20100000E+01  1.00800000E+00
  1.20100000E+01  1.20100000E+01  1.00800000E+00  1.00800000E+00  1.00800000E+00
  1.20100000E+01  1.20100000E+01  1.00800000E+00  1.20100000E+01  1.20100000E+01
  1.00800000E+00  1.20100000E+01  1.20100000E+01  1.00800000E+00  1.20100000E+01
  1.20100000E+01  1.00800000E+00  1.20100000E+01  1.00800000E+00  1.00800000E+00
  1.00800000E+00  1.20100000E+01  1.20100000E+01  1.20100000E+01  1.20100000E+01
  1.20100000E+01  1.00800000E+00  1.20100000E+01  1.20100000E+01  1.20100000E+01
  1.20100000E+01  1.20100000E+01  1.00800000E+00  1.00800000E+00  1.20100000E+01
  1.00800000E+00  1.20100000E+01  1.20100000E+01  1.00800000E+00  1.00800000E+00
  1.00800000E+00  1.20100000E+01  1.20100000E+01  1.00800000E+00  1.20100000E+01
  1.20100000E+01  1.00800000E+00  1.20100000E+01  1.20100000E+01  1.00800000E+00
  1.20100000E+01  1.20100000E+01  1.00800000E+00  1.20100000E+01  1.00800000E+00
  1.00800000E+00  1.00800000E+00  1.20100000E+01  1.20100000E+01  1.20100000E+01
  1.20100000E+01  1.20100000E+01  1.00800000E+00  1.20100000E+01  1.20100000E+01
  1.20100000E+01  1.20100000E+01  1.20100000E+01  1.00800000E+00  1.00800000E+00
  1.20100000E+01  1.00800000E+00  1.20100000E+01  1.20100000E+01  1.00800000E+00
  1.00800000E+00  1.00800000E+00  1.20100000E+01  1.20100000E+01  1.00800000E+00
  1.20100000E+01  1.20100000E+01  1.00800000E+00  1.20100000E+01  1.20100000E+01
  1.00800000E+00  1.20100000E+01  1.20100000E+01  1.00800000E+00  1.20100000E+01
  1.00800000E+00  1.00800000E+00  1.00800000E+00  1.20100000E+01  1.20100000E+01
  1.20100000E+01  1.20100000E+01  1.20100000E+01  1.00800000E+00  1.20100000E+01
  1.20100000E+01  1.20100000E+01  1.20100000E+01  1.20100000E+01  1.00800000E+00
  1.00800000E+00  1.20100000E+01  1.00800000E+00  1.20100000E+01  1.20100000E+01
  1.00800000E+00  1.00800000E+00  1.00800000E+00  1.20100000E+01  1.20100000E+01
  1.00800000E+00  1.20100000E+01  1.20100000E+01  1.00800000E+00  1.20100000E+01
  1.20100000E+01  1.00800000E+00  1.20100000E+01  1.20100000E+01  1.00800000E+00
  1.20100000E+01  1.00800000E+00  1.00800000E+00  1.00800000E+00  1.20100000E+01
  1.20100000E+01  1.20100000E+01  1.20100000E+01  1.20100000E+01  1.00800000E+00
  1.20100000E+01  1.20100000E+01  1.20100000E+01  1.20100000E+01  1.20100000E+01
  1.00800000E+00  1.00800000E+00  1.20100000E+01  1.00800000E+00  1.20100000E+01
  1.20100000E+01  1.00800000E+00  1.00800000E+00  1.00800000E+00  1.20100000E+01
  1.20100000E+01  1.00800000E+00  1.20100000E+01  1.20100000E+01  1.00800000E+00
  1.20100000E+01  1.20100000E+01  1.00800000E+00  1.20100000E+01  1.20100000E+01
  1.00800000E+00  1.20100000E+01  1.00800000E+00  1.00800000E+00  1.00800000E+00
  1.20100000E+01  1.20100000E+01  1.20100000E+01  1.20100000E+01  1.20100000E+01
  1.00800000E+00  1.20100000E+01  1.20100000E+01  1.20100000E+01  1.20100000E+01
  1.20100000E+01  1.00800000E+00  1.00800000E+00  1.20100000E+01  1.00800000E+00
  1.20100000E+01  1.20100000E+01  1.00800000E+00  1.00800000E+00  1.00800000E+00
  1.20100000E+01  1.20100000E+01  1.00800000E+00  1.20100000E+01  1.20100000E+01
  1.00800000E+00  1.20100000E+01  1.20100000E+01  1.00800000E+00  1.20100000E+01
  1.20100000E+01  1.00800000E+00  1.20100000E+01  1.00800000E+00  1.00800000E+00
  1.00800000E+00  1.20100000E+01  1.20100000E+01  1.20100000E+01  1.20100000E+01
  1.20100000E+01  1.00800000E+00  1.20100000E+01  1.20100000E+01  1.20100000E+01
  1.20100000E+01  1.20100000E+01  1.00800000E+00  1.00800000E+00  1.20100000E+01
  1.00800000E+00  1.20100000E+01  1.20100000E+01  1.00800000E+00  1.00800000E+00
  1.00800000E+00  1.20100000E+01  1.20100000E+01  1.00800000E+00  1.20100000E+01
  1.20100000E+01  1.00800000E+00  1.20100000E+01  1.20100000E+01  1.00800000E+00
  1.20100000E+01  1.20100000E+01  1.00800000E+00  1.20100000E+01  1.00800000E+00
  1.00800000E+00  1.00800000E+00  1.20100000E+01  1.20100000E+01  1.20100000E+01
  1.20100000E+01  1.20100000E+01  1.00800000E+00  1.20100000E+01  1.20100000E+01
  1.20100000E+01  1.20100000E+01  1.20100000E+01  1.00800000E+00  1.00800000E+00
  1.20100000E+01  1.00800000E+00  1.20100000E+01  1.20100000E+01  1.00800000E+00
  1.00800000E+00  1.00800000E+00  1.20100000E+01  1.20100000E+01  1.00800000E+00
  1.20100000E+01  1.20100000E+01  1.00800000E+00  1.20100000E+01  1.20100000E+01
  1.00800000E+00  1.20100000E+01  1.20100000E+01  1.00800000E+00  1.20100000E+01
  1.00800000E+00  1.00800000E+00  1.00800000E+00  1.20100000E+01  1.20100000E+01
  1.20100000E+01  1.20100000E+01  1.20100000E+01  1.00800000E+00  1.20100000E+01
  1.20100000E+01  1.20100000E+01  1.20100000E+01  1.20100000E+01  1.00800000E+00
  1.00800000E+00  1.20100000E+01  1.00800000E+00  1.20100000E+01  1.20100000E+01
  1.00800000E+00  1.00800000E+00  1.00800000E+00  1.20100000E+01  1.20100000E+01
  1.00800000E+00  1.20100000E+01  1.20100000E+01  1.00800000E+00  1.20100000E+01
  1.20100000E+01  1.00800000E+00  1.20100000E+01  1.20100000E+01  1.00800000E+00
  1.20100000E+01  1.00800000E+00  1.00800000E+00  1.00800000E+00  1.20100000E+01
  1.20100000E+01  1.20100000E+01  1.20100000E+01  1.20100000E+01  1.00800000E+00
  1.20100000E+01  1.20100000E+01  1.20100000E+01  1.20100000E+01  1.20100000E+01
  1.00800000E+00  1.00800000E+00  1.20100000E+01  1.00800000E+00  1.20100000E+01
  1.20100000E+01  1.00800000E+00  1.00800000E+00  1.00800000E+00  1.20100000E+01
  1.20100000E+01  1.00800000E+00  1.20100000E+01  1.20100000E+01  1.00800000E+00
  1.20100000E+01  1.20100000E+01  1.00800000E+00  1.20100000E+01  1.20100000E+01
  1.00800000E+00  1.20100000E+01  1.00800000E+00  1.00800000E+00  1.00800000E+00
  1.20100000E+01  1.20100000E+01  1.20100000E+01  1.20100000E+01  1.20100000E+01
  1.00800000E+00  1.20100000E+01  1.20100000E+01  1.20100000E+01  1.20100000E+01
  1.20100000E+01  1.00800000E+00  1.00800000E+00  1.20100000E+01  1.00800000E+00
  1.20100000E+01  1.20100000E+01  1.00800000E+00  1.00800000E+00  1.00800000E+00
  1.20100000E+01  1.20100000E+01  1.00800000E+00  1.20100000E+01  1.20100000E+01
  1.00800000E+00  1.20100000E+01  1.20100000E+01  1.00800000E+00  1.20100000E+01
  1.20100000E+01  1.00800000E+00  1.20100000E+01  1.00800000E+00  1.00800000E+00
  1.00800000E+00  1.20100000E+01  1.20100000E+01  1.20100000E+01  1.20100000E+01
  1.20100000E+01  1.00800000E+00  1.20100000E+01  1.20100000E+01  1.20100000E+01
  1.20100000E+01  1.20100000E+01  1.00800000E+00  1.00800000E+00  1.20100000E+01
  1.00800000E+00  1.20100000E+01  1.20100000E+01  1.00800000E+00  1.00800000E+00
  1.00800000E+00  1.20100000E+01  1.20100000E+01  1.00800000E+00  1.20100000E+01
  1.20100000E+01  1.00800000E+00  1.20100000E+01  1.20100000E+01  1.00800000E+00
  1.20100000E+01  1.20100000E+01  1.00800000E+00  1.20100000E+01  1.00800000E+00
  1.00800000E+00  1.00800000E+00  1.20100000E+01  1.20100000E+01  1.20100000E+01
  1.20100000E+01  1.20100000E+01  1.00800000E+00  1.20100000E+01  1.20100000E+01
  1.20100000E+01  1.20100000E+01  1.20100000E+01  1.00800000E+00  1.00800000E+00
  1.20100000E+01  1.00800000E+00  1.20100000E+01  1.20100000E+01  1.00800000E+00
  1.00800000E+00  1.00800000E+00  1.20100000E+01  1.20100000E+01  1.00800000E+00
  1.20100000E+01  1.20100000E+01  1.00800000E+00  1.20100000E+01  1.20100000E+01
  1.00800000E+00  1.20100000E+01  1.20100000E+01  1.00800000E+00  1.20100000E+01
  1.00800000E+00  1.00800000E+00  1.00800000E+00  1.20100000E+01  1.20100000E+01
  1.20100000E+01  1.20100000E+01  1.20100000E+01  1.00800000E+00  1.20100000E+01
  1.20100000E+01  1.20100000E+01  1.20100000E+01  1.20100000E+01  1.00800000E+00
  1.00800000E+00  1.20100000E+01  1.00800000E+00  1.20100000E+01  1.20100000E+01
  1.00800000E+00  1.00800000E+00  1.00800000E+00  1.20100000E+01  1.20100000E+01
  1.00800000E+00  1.20100000E+01  1.20100000E+01  1.00800000E+00  1.20100000E+01
  1.20100000E+01  1.00800000E+00  1.20100000E+01  1.20100000E+01  1.00800000E+00
  1.20100000E+01  1.00800000E+00  1.00800000E+00  1.00800000E+00  1.20100000E+01
  1.20100000E+01  1.20100000E+01  1.20100000E+01  1.20100000E+01  1.00800000E+00
  1.20100000E+01  1.20100000E+01  1.20100000E+01  1.20100000E+01  1.20100000E+01
  1.00800000E+00  1.00800000E+00  1.20100000E+01  1.00800000E+00  1.20100000E+01
  1.20100000E+01  1.00800000E+00  1.00800000E+00  1.00800000E+00  1.20100000E+01
  1.20100000E+01  1.00800000E+00  1.20100000E+01  1.20100000E+01  1.00800000E+00
  1.20100000E+01  1.20100000E+01  1.00800000E+00  1.20100000E+01  1.20100000E+01
  1.00800000E+00  1.20100000E+01  1.00800000E+00  1.00800000E+00  1.00800000E+00
  1.20100000E+01  1.20100000E+01  1.20100000E+01  1.20100000E+01  1.20100000E+01
  1.00800000E+00  1.20100000E+01  1.20100000E+01  1.20100000E+01  1.20100000E+01
  1.20100000E+01  1.00800000E+00  1.00800000E+00  1.20100000E+01  1.00800000E+00
  1.20100000E+01  1.20100000E+01  1.00800000E+00  1.00800000E+00  1.00800000E+00
  1.20100000E+01  1.20100000E+01  1.00800000E+00  1.20100000E+01  1.20100000E+01
  1.00800000E+00  1.20100000E+01  1.20100000E+01  1.00800000E+00  1.20100000E+01
  1.20100000E+01  1.00800000E+00  1.20100000E+01  1.00800000E+00  1.00800000E+00
  1.00800000E+00  1.20100000E+01  1.20100000E+01  1.20100000E+01  1.20100000E+01
  1.20100000E+01  1.00800000E+00  1.20100000E+01  1.20100000E+01  1.20100000E+01
  1.20100000E+01  1.20100000E+01  1.00800000E+00  1.00800000E+00  1.20100000E+01
  1.00800000E+00  1.20100000E+01  1.20100000E+01  1.00800000E+00  1.00800000E+00
  1.00800000E+00  1.20100000E+01  1.20100000E+01  1.00800000E+00  1.20100000E+01
  1.20100000E+01  1.00800000E+00  1.20100000E+01  1.20100000E+01  1.00800000E+00
  1.20100000E+01  1.20100000E+01  1.00800000E+00  1.20100000E+01  1.00800000E+00
  1.00800000E+00  1.00800000E+00  1.20100000E+01  1.20100000E+01  1.20100000E+01
  1.20100000E+01  1.20100000E+01  1.00800000E+00  1.20100000E+01  1.20100000E+01
  1.20100000E+01  1.20100000E+01  1.20100000E+01  1.00800000E+00  1.00800000E+00
  1.20100000E+01  1.00800000E+00  1.20100000E+01  1.20100000E+01  1.00800000E+00
  1.00800000E+00  1.00800000E+00  1.20100000E+01  1.20100000E+01  1.00800000E+00
  1.20100000E+01  1.20100000E+01  1.00800000E+00  1.20100000E+01  1.20100000E+01
  1.00800000E+00  1.20100000E+01  1.20100000E+01  1.00800000E+00  1.20100000E+01
  1.00800000E+00  1.00800000E+00  1.00800000E+00  1.20100000E+01  1.20100000E+01
  1.20100000E+01  1.20100000E+01  1.20100000E+01  1.00800000E+00  1.20100000E+01
  1.20100000E+01  1.20100000E+01  1.20100000E+01  1.20100000E+01  1.00800000E+00
  1.00800000E+00  1.20100000E+01  1.00800000E+00  1.20100000E+01  1.20100000E+01
  1.00800000E+00  1.00800000E+00  1.00800000E+00  1.20100000E+01  1.20100000E+01
  1.00800000E+00  1.20100000E+01  1.20100000E+01  1.00800000E+00  1.20100000E+01
  1.20100000E+01  1.00800000E+00  1.20100000E+01  1.20100000E+01  1.00800000E+00
  1.20100000E+01  1.00800000E+00  1.00800000E+00  1.00800000E+00  1.20100000E+01
  1.20100000E+01  1.20100000E+01  1.20100000E+01  1.20100000E+01  1.00800000E+00
  1.20100000E+01  1.20100000E+01  1.20100000E+01  1.20100000E+01  1.20100000E+01
  1.00800000E+00  1.00800000E+00  1.20100000E+01  1.00800000E+00  1.20100000E+01
  1.20100000E+01  1.00800000E+00  1.00800000E+00  1.00800000E+00  1.20100000E+01
  1.20100000E+01  1.00800000E+00  1.20100000E+01  1.20100000E+01  1.00800000E+00
  1.20100000E+01  1.20100000E+01  1.00800000E+00  1.20100000E+01  1.20100000E+01
  1.00800000E+00  1.20100000E+01  1.00800000E+00  1.00800000E+00  1.00800000E+00
  1.20100000E+01  1.20100000E+01  1.20100000E+01  1.20100000E+01  1.20100000E+01
  1.00800000E+00  1.20100000E+01  1.20100000E+01  1.20100000E+01  1.20100000E+01
  1.20100000E+01  1.00800000E+00  1.00800000E+00  1.20100000E+01  1.00800000E+00
  1.20100000E+01  1.20100000E+01  1.00800000E+00  1.00800000E+00  1.00800000E+00
  1.20100000E+01  1.20100000E+01  1.00800000E+00  1.20100000E+01  1.20100000E+01
  1.00800000E+00  1.20100000E+01  1.20100000E+01  1.00800000E+00  1.20100000E+01
  1.20100000E+01  1.00800000E+00  1.20100000E+01  1.00800000E+00  1.00800000E+00
  1.00800000E+00  1.20100000E+01  1.20100000E+01  1.20100000E+01  1.20100000E+01
  1.20100000E+01  1.00800000E+00  1.20100000E+01  1.20100000E+01  1.20100000E+01
  1.20100000E+01  1.20100000E+01  1.00800000E+00  1.00800000E+00  1.20100000E+01
  1.00800000E+00  1.20100000E+01  1.20100000E+01  1.00800000E+00  1.00800000E+00
  1.00800000E+00  1.20100000E+01  1.20100000E+01  1.00800000E+00  1.20100000E+01
  1.20100000E+01  1.00800000E+00  1.20100000E+01  1.20100000E+01  1.00800000E+00
  1.20100000E+01  1.20100000E+01  1.00800000E+00  1.20100000E+01  1.00800000E+00
  1.00800000E+00  1.00800000E+00  1.20100000E+01  1.20100000E+01  1.20100000E+01
  1.20100000E+01  1.20100000E+01  1.00800000E+00  1.20100000E+01  1.20100000E+01
  1.20100000E+01  1.20100000E+01  1.20100000E+01  1.00800000E+00  1.00800000E+00
  1.20100000E+01  1.00800000E+00  1.20100000E+01  1.20100000E+01  1.00800000E+00
  1.00800000E+00  1.00800000E+00  1.20100000E+01  1.20100000E+01  1.00800000E+00
  1.20100000E+01  1.20100000E+01  1.00800000E+00  1.20100000E+01  1.20100000E+01
  1.00800000E+00  1.20100000E+01  1.20100000E+01  1.00800000E+00  1.20100000E+01
  1.00800000E+00  1.00800000E+00  1.00800000E+00  1.20100000E+01  1.20100000E+01
  1.20100000E+01  1.20100000E+01  1.20100000E+01  1.00800000E+00  1.20100000E+01
  1.20100000E+01  1.20100000E+01  1.20100000E+01  1.20100000E+01  1.00800000E+00
  1.00800000E+00  1.20100000E+01  1.00800000E+00  1.20100000E+01  1.20100000E+01
  1.00800000E+00  1.00800000E+00  1.00800000E+00  1.20100000E+01  1.20100000E+01
  1.00800000E+00  1.20100000E+01  1.20100000E+01  1.00800000E+00  1.20100000E+01
  1.20100000E+01  1.00800000E+00  1.20100000E+01  1.20100000E+01  1.00800000E+00
  1.20100000E+01  1.00800000E+00  1.00800000E+00  1.00800000E+00  1.20100000E+01
  1.20100000E+01  1.20100000E+01  1.20100000E+01  1.20100000E+01  1.00800000E+00
  1.20100000E+01  1.20100000E+01  1.20100000E+01  1.20100000E+01  1.20100000E+01
  1.00800000E+00  1.00800000E+00  1.20100000E+01  1.00800000E+00  1.20100000E+01
  1.20100000E+01  1.00800000E+00  1.00800000E+00  1.00800000E+00  1.20100000E+01
  1.20100000E+01  1.00800000E+00  1.20100000E+01  1.20100000E+01  1.00800000E+00
  1.20100000E+01  1.20100000E+01  1.00800000E+00  1.20100000E+01  1.20100000E+01
  1.00800000E+00  1.20100000E+01  1.00800000E+00  1.00800000E+00  1.00800000E+00
  1.20100000E+01  1.20100000E+01  1.20100000E+01  1.20100000E+01  1.20100000E+01
  1.00800000E+00  1.20100000E+01  1.20100000E+01  1.20100000E+01  1.20100000E+01
  1.20100000E+01  1.00800000E+00  1.00800000E+00  1.20100000E+01  1.00800000E+00
  1.20100000E+01  1.20100000E+01  1.00800000E+00  1.00800000E+00  1.00800000E+00
  1.20100000E+01  1.20100000E+01  1.00800000E+00  1.20100000E+01  1.20100000E+01
  1.00800000E+00  1.20100000E+01  1.20100000E+01  1.00800000E+00  1.20100000E+01
  1.20100000E+01  1.00800000E+00  1.20100000E+01  1.00800000E+00  1.00800000E+00
  1.00800000E+00  1.20100000E+01  1.20100000E+01  1.20100000E+01  1.20100000E+01
  1.20100000E+01  1.00800000E+00  1.20100000E+01  1.20100000E+01  1.20100000E+01
  1.20100000E+01  1.20100000E+01  1.00800000E+00  1.00800000E+00  1.20100000E+01
  1.00800000E+00  1.20100000E+01  1.20100000E+01  1.00800000E+00  1.00800000E+00
  1.00800000E+00  1.20100000E+01  1.20100000E+01  1.00800000E+00  1.20100000E+01
  1.20100000E+01  1.00800000E+00  1.20100000E+01  1.20100000E+01  1.00800000E+00
  1.20100000E+01  1.20100000E+01  1.00800000E+00  1.20100000E+01  1.00800000E+00
  1.00800000E+00  1.00800000E+00  1.20100000E+01  1.20100000E+01  1.20100000E+01
  1.20100000E+01  1.20100000E+01  1.00800000E+00  1.20100000E+01  1.20100000E+01
  1.20100000E+01  1.20100000E+01  1.20100000E+01  1.00800000E+00  1.00800000E+00
  1.20100000E+01  1.00800000E+00  1.20100000E+01  1.20100000E+01  1.00800000E+00
  1.00800000E+00  1.00800000E+00  1.20100000E+01  1.20100000E+01  1.00800000E+00
  1.20100000E+01  1.20100000E+01  1.00800000E+00  1.20100000E+01  1.20100000E+01
  1.00800000E+00  1.20100000E+01  1.20100000E+01  1.00800000E+00  1.20100000E+01
  1.00800000E+00  1.00800000E+00  1.00800000E+00  1.20100000E+01  1.20100000E+01
  1.20100000E+01  1.20100000E+01  1.20100000E+01  1.00800000E+00  1.20100000E+01
  1.20100000E+01  1.20100000E+01  1.20100000E+01  1.20100000E+01  1.00800000E+00
  1.00800000E+00  1.20100000E+01  1.00800000E+00  1.20100000E+01  1.20100000E+01
  1.00800000E+00  1.00800000E+00  1.00800000E+00  1.20100000E+01  1.20100000E+01
  1.00800000E+00  1.20100000E+01  1.20100000E+01  1.00800000E+00  1.20100000E+01
  1.20100000E+01  1.00800000E+00  1.20100000E+01  1.20100000E+01  1.00800000E+00
  1.20100000E+01  1.00800000E+00  1.00800000E+00  1.00800000E+00  1.20100000E+01
  1.20100000E+01  1.20100000E+01  1.20100000E+01  1.20100000E+01  1.00800000E+00
  1.20100000E+01  1.20100000E+01  1.20100000E+01  1.20100000E+01  1.20100000E+01
  1.00800000E+00  1.00800000E+00  1.20100000E+01  1.00800000E+00  1.20100000E+01
  1.20100000E+01  1.00800000E+00  1.00800000E+00  1.00800000E+00  1.20100000E+01
  1.20100000E+01  1.00800000E+00  1.20100000E+01  1.20100000E+01  1.00800000E+00
  1.20100000E+01  1.20100000E+01  1.00800000E+00  1.20100000E+01  1.20100000E+01
  1.00800000E+00  1.20100000E+01  1.00800000E+00  1.00800000E+00  1.00800000E+00
  1.20100000E+01  1.20100000E+01  1.20100000E+01  1.20100000E+01  1.20100000E+01
  1.00800000E+00  1.20100000E+01  1.20100000E+01  1.20100000E+01  1.20100000E+01
  1.20100000E+01  1.00800000E+00  1.00800000E+00  1.20100000E+01  1.00800000E+00
  1.20100000E+01  1.20100000E+01  1.00800000E+00  1.00800000E+00  1.00800000E+00
  1.20100000E+01  1.20100000E+01  1.00800000E+00  1.20100000E+01  1.20100000E+01
  1.00800000E+00  1.20100000E+01  1.20100000E+01  1.00800000E+00  1.20100000E+01
  1.20100000E+01  1.00800000E+00  1.20100000E+01  1.00800000E+00  1.00800000E+00
  1.00800000E+00  1.20100000E+01  1.20100000E+01  1.20100000E+01  1.20100000E+01
  1.20100000E+01  1.00800000E+00  1.20100000E+01  1.20100000E+01  1.20100000E+01
  1.20100000E+01  1.20100000E+01  1.00800000E+00  1.00800000E+00  1.20100000E+01
  1.00800000E+00  1.20100000E+01  1.20100000E+01  1.00800000E+00  1.00800000E+00
  1.00800000E+00  1.20100000E+01  1.20100000E+01  1.00800000E+00  1.20100000E+01
  1.20100000E+01  1.00800000E+00  1.20100000E+01  1.20100000E+01  1.00800000E+00
  1.20100000E+01  1.20100000E+01  1.00800000E+00  1.20100000E+01  1.00800000E+00
  1.00800000E+00  1.00800000E+00  1.20100000E+01  1.20100000E+01  1.20100000E+01
  1.20100000E+01  1.20100000E+01  1.00800000E+00  1.20100000E+01  1.20100000E+01
  1.20100000E+01  1.20100000E+01  1.20100000E+01  1.00800000E+00  1.00800000E+00
  1.20100000E+01  1.00800000E+00  1.20100000E+01  1.20100000E+01  1.00800000E+00
  1.00800000E+00  1.00800000E+00  1.20100000E+01  1.20100000E+01  1.00800000E+00
  1.20100000E+01  1.20100000E+01  1.00800000E+00  1.20100000E+01  1.20100000E+01
  1.00800000E+00  1.20100000E+01  1.20100000E+01  1.00800000E+00  1.20100000E+01
  1.00800000E+00  1.00800000E+00  1.00800000E+00  1.20100000E+01  1.20100000E+01
  1.20100000E+01  1.20100000E+01  1.20100000E+01  1.00800000E+00  1.20100000E+01
  1.20100000E+01  1.20100000E+01  1.20100000E+01  1.20100000E+01  1.00800000E+00
  1.00800000E+00  1.20100000E+01  1.00800000E+00  1.20100000E+01  1.20100000E+01
  1.00800000E+00  1.00800000E+00  1.00800000E+00  1.20100000E+01  1.20100000E+01
  1.00800000E+00  1.20100000E+01  1.20100000E+01  1.00800000E+00  1.20100000E+01
  1.20100000E+01  1.00800000E+00  1.20100000E+01  1.20100000E+01  1.00800000E+00
  1.20100000E+01  1.00800000E+00  1.00800000E+00  1.00800000E+00  1.20100000E+01
  1.20100000E+01  1.20100000E+01  1.20100000E+01  1.20100000E+01  1.00800000E+00
  1.20100000E+01  1.20100000E+01  1.20100000E+01  1.20100000E+01  1.20100000E+01
  1.00800000E+00  1.00800000E+00  1.20100000E+01  1.00800000E+00  1.20100000E+01
  1.20100000E+01  1.00800000E+00  1.00800000E+00  1.00800000E+00  1.20100000E+01
  1.20100000E+01  1.00800000E+00  1.20100000E+01  1.20100000E+01  1.00800000E+00
  1.20100000E+01  1.20100000E+01  1.00800000E+00  1.20100000E+01  1.20100000E+01
  1.00800000E+00  1.20100000E+01  1.00800000E+00  1.00800000E+00  1.00800000E+00
  1.20100000E+01  1.20100000E+01  1.20100000E+01  1.20100000E+01  1.20100000E+01
  1.00800000E+00  1.20100000E+01  1.20100000E+01  1.20100000E+01  1.20100000E+01
  1.20100000E+01  1.00800000E+00  1.00800000E+00  1.20100000E+01  1.00800000E+00
  1.20100000E+01  1.20100000E+01  1.00800000E+00  1.00800000E+00  1.00800000E+00
  1.20100000E+01  1.20100000E+01  1.00800000E+00  1.20100000E+01  1.20100000E+01
  1.00800000E+00  1.20100000E+01  1.20100000E+01  1.00800000E+00  1.20100000E+01
  1.20100000E+01  1.00800000E+00  1.20100000E+01  1.00800000E+00  1.00800000E+00
  1.00800000E+00  1.20100000E+01  1.20100000E+01  1.20100000E+01  1.20100000E+01
  1.20100000E+01  1.00800000E+00  1.20100000E+01  1.20100000E+01  1.20100000E+01
  1.20100000E+01  1.20100000E+01  1.00800000E+00  1.00800000E+00  1.20100000E+01
  1.00800000E+00  1.20100000E+01  1.20100000E+01  1.00800000E+00  1.00800000E+00
  1.00800000E+00  1.20100000E+01  1.20100000E+01  1.00800000E+00  1.20100000E+01
  1.20100000E+01  1.00800000E+00  1.20100000E+01  1.20100000E+01  1.00800000E+00
  1.20100000E+01  1.20100000E+01  1.00800000E+00  1.20100000E+01  1.00800000E+00
  1.00800000E+00  1.00800000E+00  1.20100000E+01  1.20100000E+01  1.20100000E+01
  1.20100000E+01  1.20100000E+01  1.00800000E+00  1.20100000E+01  1.20100000E+01
  1.20100000E+01  1.20100000E+01  1.20100000E+01  1.00800000E+00  1.00800000E+00
  1.20100000E+01  1.00800000E+00  1.20100000E+01  1.20100000E+01  1.00800000E+00
  1.00800000E+00  1.00800000E+00  1.20100000E+01  1.20100000E+01  1.00800000E+00
  1.20100000E+01  1.20100000E+01  1.00800000E+00  1.20100000E+01  1.20100000E+01
  1.00800000E+00  1.20100000E+01  1.20100000E+01  1.00800000E+00  1.20100000E+01
  1.00800000E+00  1.00800000E+00  1.00800000E+00  1.20100000E+01  1.20100000E+01
  1.20100000E+01  1.20100000E+01  1.20100000E+01  1.00800000E+00  1.20100000E+01
  1.20100000E+01  1.20100000E+01  1.20100000E+01  1.20100000E+01  1.00800000E+00
  1.00800000E+00  1.20100000E+01  1.00800000E+00  1.20100000E+01  1.20100000E+01
  1.00800000E+00  1.00800000E+00  1.00800000E+00  1.20100000E+01  1.20100000E+01
  1.00800000E+00  1.20100000E+01  1.20100000E+01  1.00800000E+00  1.20100000E+01
  1.20100000E+01  1.00800000E+00  1.20100000E+01  1.20100000E+01  1.00800000E+00
  1.20100000E+01  1.00800000E+00  1.00800000E+00  1.00800000E+00  1.20100000E+01
  1.20100000E+01  1.20100000E+01  1.20100000E+01  1.20100000E+01  1.00800000E+00
  1.20100000E+01  1.20100000E+01  1.20100000E+01  1.20100000E+01  1.20100000E+01
  1.00800000E+00  1.00800000E+00  1.20100000E+01  1.00800000E+00  1.20100000E+01
  1.20100000E+01  1.00800000E+00  1.00800000E+00  1.00800000E+00  1.20100000E+01
  1.20100000E+01  1.00800000E+00  1.20100000E+01  1.20100000E+01  1.00800000E+00
  1.20100000E+01  1.20100000E+01  1.00800000E+00  1.20100000E+01  1.20100000E+01
  1.00800000E+00  1.20100000E+01  1.00800000E+00  1.00800000E+00  1.00800000E+00
  1.20100000E+01  1.20100000E+01  1.20100000E+01  1.20100000E+01  1.20100000E+01
  1.00800000E+00  1.20100000E+01  1.20100000E+01  1.20100000E+01  1.20100000E+01
  1.20100000E+01  1.00800000E+00  1.00800000E+00  1.20100000E+01  1.00800000E+00
  1.20100000E+01  1.20100000E+01  1.00800000E+00  1.00800000E+00  1.00800000E+00
  1.20100000E+01  1.20100000E+01  1.00800000E+00  1.20100000E+01  1.20100000E+01
  1.00800000E+00  1.20100000E+01  1.20100000E+01  1.00800000E+00  1.20100000E+01
  1.20100000E+01  1.00800000E+00  1.20100000E+01  1.00800000E+00  1.00800000E+00
  1.00800000E+00  1.20100000E+01  1.20100000E+01  1.20100000E+01  1.20100000E+01
  1.20100000E+01  1.00800000E+00  1.20100000E+01  1.20100000E+01  1.20100000E+01
  1.20100000E+01  1.20100000E+01  1.00800000E+00  1.00800000E+00  1.20100000E+01
  1.00800000E+00  1.20100000E+01  1.20100000E+01  1.00800000E+00  1.00800000E+00
  1.00800000E+00  1.20100000E+01  1.20100000E+01  1.00800000E+00  1.20100000E+01
  1.20100000E+01  1.00800000E+00  1.20100000E+01  1.20100000E+01  1.00800000E+00
  1.20100000E+01  1.20100000E+01  1.00800000E+00  1.20100000E+01  1.00800000E+00
  1.00800000E+00  1.00800000E+00  1.20100000E+01  1.20100000E+01  1.20100000E+01
  1.20100000E+01  1.20100000E+01  1.00800000E+00  1.20100000E+01  1.20100000E+01
  1.20100000E+01  1.20100000E+01  1.20100000E+01  1.00800000E+00  1.00800000E+00
  1.20100000E+01  1.00800000E+00  1.20100000E+01  1.20100000E+01  1.00800000E+00
  1.00800000E+00  1.00800000E+00  1.20100000E+01  1.20100000E+01  1.00800000E+00
  1.20100000E+01  1.20100000E+01  1.00800000E+00  1.20100000E+01  1.20100000E+01
  1.00800000E+00  1.20100000E+01  1.20100000E+01  1.00800000E+00  1.20100000E+01
  1.00800000E+00  1.00800000E+00  1.00800000E+00  1.20100000E+01  1.20100000E+01
  1.20100000E+01  1.20100000E+01  1.20100000E+01  1.00800000E+00  1.20100000E+01
  1.20100000E+01  1.20100000E+01  1.20100000E+01  1.20100000E+01  1.00800000E+00
  1.00800000E+00  1.20100000E+01  1.00800000E+00  1.20100000E+01  1.20100000E+01
  1.00800000E+00  1.00800000E+00  1.00800000E+00  1.20100000E+01  1.20100000E+01
  1.00800000E+00  1.20100000E+01  1.20100000E+01  1.00800000E+00  1.20100000E+01
  1.20100000E+01  1.00800000E+00  1.20100000E+01  1.20100000E+01  1.00800000E+00
  1.20100000E+01  1.00800000E+00  1.00800000E+00  1.00800000E+00  1.20100000E+01
  1.20100000E+01  1.20100000E+01  1.20100000E+01  1.20100000E+01  1.00800000E+00
  1.20100000E+01  1.20100000E+01  1.20100000E+01  1.20100000E+01  1.20100000E+01
  1.00800000E+00  1.00800000E+00  1.20100000E+01  1.00800000E+00  1.20100000E+01
  1.20100000E+01  1.00800000E+00  1.00800000E+00  1.00800000E+00  1.20100000E+01
  1.20100000E+01  1.00800000E+00  1.20100000E+01  1.20100000E+01  1.00800000E+00
  1.20100000E+01  1.20100000E+01  1.00800000E+00  1.20100000E+01  1.20100000E+01
  1.00800000E+00  1.20100000E+01  1.00800000E+00  1.00800000E+00  1.00800000E+00
  1.20100000E+01  1.20100000E+01  1.20100000E+01  1.20100000E+01  1.20100000E+01
  1.00800000E+00  1.20100000E+01  1.20100000E+01  1.20100000E+01  1.20100000E+01
  1.20100000E+01  1.00800000E+00  1.00800000E+00  1.20100000E+01  1.00800000E+00
  1.20100000E+01  1.20100000E+01  1.00800000E+00  1.00800000E+00  1.00800000E+00
  1.20100000E+01  1.20100000E+01  1.00800000E+00  1.20100000E+01  1.20100000E+01
  1.00800000E+00  1.20100000E+01  1.20100000E+01  1.00800000E+00  1.20100000E+01
  1.20100000E+01  1.00800000E+00  1.20100000E+01  1.00800000E+00  1.00800000E+00
  1.00800000E+00  1.20100000E+01  1.20100000E+01  1.20100000E+01  1.20100000E+01
  1.20100000E+01  1.00800000E+00  1.20100000E+01  1.20100000E+01  1.20100000E+01
  1.20100000E+01  1.20100000E+01  1.00800000E+00  1.00800000E+00  1.20100000E+01
  1.00800000E+00  1.20100000E+01  1.20100000E+01  1.00800000E+00  1.00800000E+00
  1.00800000E+00  1.20100000E+01  1.20100000E+01  1.00800000E+00  1.20100000E+01
  1.20100000E+01  1.00800000E+00  1.20100000E+01  1.20100000E+01  1.00800000E+00
  1.20100000E+01  1.20100000E+01  1.00800000E+00  1.20100000E+01  1.00800000E+00
  1.00800000E+00  1.00800000E+00  1.20100000E+01  1.20100000E+01  1.20100000E+01
  1.20100000E+01  1.20100000E+01  1.00800000E+00  1.20100000E+01  1.20100000E+01
  1.20100000E+01  1.20100000E+01  1.20100000E+01  1.00800000E+00  1.00800000E+00
  1.20100000E+01  1.00800000E+00  1.20100000E+01  1.20100000E+01  1.00800000E+00
  1.00800000E+00  1.00800000E+00  1.20100000E+01  1.20100000E+01  1.00800000E+00
  1.20100000E+01  1.20100000E+01  1.00800000E+00  1.20100000E+01  1.20100000E+01
  1.00800000E+00  1.20100000E+01  1.20100000E+01  1.00800000E+00  1.20100000E+01
  1.00800000E+00  1.00800000E+00  1.00800000E+00  1.20100000E+01  1.20100000E+01
  1.20100000E+01  1.20100000E+01  1.20100000E+01  1.00800000E+00  1.20100000E+01
  1.20100000E+01  1.20100000E+01  1.20100000E+01  1.20100000E+01  1.00800000E+00
  1.00800000E+00  1.20100000E+01  1.00800000E+00  1.20100000E+01  1.20100000E+01
  1.00800000E+00  1.00800000E+00  1.00800000E+00  1.20100000E+01  1.20100000E+01
  1.00800000E+00  1.20100000E+01  1.20100000E+01  1.00800000E+00  1.20100000E+01
  1.20100000E+01  1.00800000E+00  1.20100000E+01  1.20100000E+01  1.00800000E+00
  1.20100000E+01  1.00800000E+00  1.00800000E+00  1.00800000E+00  1.20100000E+01
  1.20100000E+01  1.20100000E+01  1.20100000E+01  1.20100000E+01  1.00800000E+00
  1.20100000E+01  1.20100000E+01  1.20100000E+01  1.20100000E+01  1.20100000E+01
  1.00800000E+00  1.00800000E+00  1.20100000E+01  1.00800000E+00  1.20100000E+01
  1.20100000E+01  1.00800000E+00  1.00800000E+00  1.00800000E+00  1.20100000E+01
  1.20100000E+01  1.00800000E+00  1.20100000E+01  1.20100000E+01  1.00800000E+00
  1.20100000E+01  1.20100000E+01  1.00800000E+00  1.20100000E+01  1.20100000E+01
  1.00800000E+00  1.20100000E+01  1.00800000E+00  1.00800000E+00  1.00800000E+00
  1.20100000E+01  1.20100000E+01  1.20100000E+01  1.20100000E+01  1.20100000E+01
  1.00800000E+00  1.20100000E+01  1.20100000E+01  1.20100000E+01  1.20100000E+01
  1.20100000E+01  1.00800000E+00  1.00800000E+00  1.20100000E+01  1.00800000E+00
  1.20100000E+01  1.20100000E+01  1.00800000E+00  1.00800000E+00  1.00800000E+00
  1.20100000E+01  1.20100000E+01  1.00800000E+00  1.20100000E+01  1.20100000E+01
  1.00800000E+00  1.20100000E+01  1.20100000E+01  1.00800000E+00  1.20100000E+01
  1.20100000E+01  1.00800000E+00  1.20100000E+01  1.00800000E+00  1.00800000E+00
  1.00800000E+00  1.20100000E+01  1.20100000E+01  1.20100000E+01  1.20100000E+01
  1.20100000E+01  1.00800000E+00  1.20100000E+01  1.20100000E+01  1.20100000E+01
  1.20100000E+01  1.20100000E+01  1.00800000E+00  1.00800000E+00  1.20100000E+01
  1.00800000E+00  1.20100000E+01  1.20100000E+01  1.00800000E+00  1.00800000E+00
  1.00800000E+00  1.20100000E+01  1.20100000E+01  1.00800000E+00  1.20100000E+01
  1.20100000E+01  1.00800000E+00  1.20100000E+01  1.20100000E+01  1.00800000E+00
  1.20100000E+01  1.20100000E+01  1.00800000E+00  1.20100000E+01  1.00800000E+00
  1.00800000E+00  1.00800000E+00  1.20100000E+01  1.20100000E+01  1.20100000E+01
  1.20100000E+01  1.20100000E+01  1.00800000E+00  1.20100000E+01  1.20100000E+01
  1.20100000E+01  1.20100000E+01  1.20100000E+01  1.00800000E+00  1.00800000E+00
  1.20100000E+01  1.00800000E+00  1.20100000E+01  1.20100000E+01  1.00800000E+00
  1.00800000E+00  1.00800000E+00  1.20100000E+01  1.20100000E+01  1.00800000E+00
  1.20100000E+01  1.20100000E+01  1.00800000E+00  1.20100000E+01  1.20100000E+01
  1.00800000E+00  1.20100000E+01  1.20100000E+01  1.00800000E+00  1.20100000E+01
  1.00800000E+00  1.00800000E+00  1.00800000E+00  1.20100000E+01  1.20100000E+01
  1.20100000E+01  1.20100000E+01  1.20100000E+01  1.00800000E+00  1.20100000E+01
  1.20100000E+01  1.20100000E+01  1.20100000E+01  1.20100000E+01  1.00800000E+00
  1.00800000E+00  1.20100000E+01  1.00800000E+00  1.20100000E+01  1.20100000E+01
  1.00800000E+00  1.00800000E+00  1.00800000E+00  1.20100000E+01  1.20100000E+01
  1.00800000E+00  1.20100000E+01  1.20100000E+01  1.00800000E+00  1.20100000E+01
  1.20100000E+01  1.00800000E+00  1.20100000E+01  1.20100000E+01  1.00800000E+00
  1.20100000E+01  1.00800000E+00  1.00800000E+00  1.00800000E+00  1.20100000E+01
  1.20100000E+01  1.20100000E+01  1.20100000E+01  1.20100000E+01  1.00800000E+00
  1.20100000E+01  1.20100000E+01  1.20100000E+01  1.20100000E+01  1.20100000E+01
  1.00800000E+00  1.00800000E+00  1.20100000E+01  1.00800000E+00  1.20100000E+01
  1.20100000E+01  1.00800000E+00  1.00800000E+00  1.00800000E+00  1.20100000E+01
  1.20100000E+01  1.00800000E+00  1.20100000E+01  1.20100000E+01  1.00800000E+00
  1.20100000E+01  1.20100000E+01  1.00800000E+00  1.20100000E+01  1.20100000E+01
  1.00800000E+00  1.20100000E+01  1.00800000E+00  1.00800000E+00  1.00800000E+00
  1.20100000E+01  1.20100000E+01  1.20100000E+01  1.20100000E+01  1.20100000E+01
  1.00800000E+00  1.20100000E+01  1.20100000E+01  1.20100000E+01  1.20100000E+01
  1.20100000E+01  1.00800000E+00  1.00800000E+00  1.20100000E+01  1.00800000E+00
  1.20100000E+01  1.20100000E+01  1.00800000E+00  1.00800000E+00  1.00800000E+00
  1.20100000E+01  1.20100000E+01  1.00800000E+00  1.20100000E+01  1.20100000E+01
  1.00800000E+00  1.20100000E+01  1.20100000E+01  1.00800000E+00  1.20100000E+01
  1.20100000E+01  1.00800000E+00  1.20100000E+01  1.00800000E+00  1.00800000E+00
  1.00800000E+00  1.20100000E+01  1.20100000E+01  1.20100000E+01  1.20100000E+01
  1.20100000E+01  1.00800000E+00  1.20100000E+01  1.20100000E+01  1.20100000E+01
  1.20100000E+01  1.20100000E+01  1.00800000E+00  1.00800000E+00  1.20100000E+01
  1.00800000E+00  1.20100000E+01  1.20100000E+01  1.00800000E+00  1.00800000E+00
  1.00800000E+00  1.20100000E+01  1.20100000E+01  1.00800000E+00  1.20100000E+01
  1.20100000E+01  1.00800000E+00  1.20100000E+01  1.20100000E+01  1.00800000E+00
  1.20100000E+01  1.20100000E+01  1.00800000E+00  1.20100000E+01  1.00800000E+00
  1.00800000E+00  1.00800000E+00  1.20100000E+01  1.20100000E+01  1.20100000E+01
  1.20100000E+01  1.20100000E+01  1.00800000E+00  1.20100000E+01  1.20100000E+01
  1.20100000E+01  1.20100000E+01  1.20100000E+01  1.00800000E+00  1.00800000E+00
  1.20100000E+01  1.00800000E+00  1.20100000E+01  1.20100000E+01  1.00800000E+00
  1.00800000E+00  1.00800000E+00  1.20100000E+01  1.20100000E+01  1.00800000E+00
  1.20100000E+01  1.20100000E+01  1.00800000E+00  1.20100000E+01  1.20100000E+01
  1.00800000E+00  1.20100000E+01  1.20100000E+01  1.00800000E+00  1.20100000E+01
  1.00800000E+00  1.00800000E+00  1.00800000E+00  1.20100000E+01  1.20100000E+01
  1.20100000E+01  1.20100000E+01  1.20100000E+01  1.00800000E+00  1.20100000E+01
  1.20100000E+01  1.20100000E+01  1.20100000E+01  1.20100000E+01  1.00800000E+00
  1.00800000E+00  1.20100000E+01  1.00800000E+00  1.20100000E+01  1.20100000E+01
  1.00800000E+00  1.00800000E+00  1.00800000E+00  1.20100000E+01  1.20100000E+01
  1.00800000E+00  1.20100000E+01  1.20100000E+01  1.00800000E+00  1.20100000E+01
  1.20100000E+01  1.00800000E+00  1.20100000E+01  1.20100000E+01  1.00800000E+00
  1.20100000E+01  1.00800000E+00  1.00800000E+00  1.00800000E+00  1.20100000E+01
  1.20100000E+01  1.20100000E+01  1.20100000E+01  1.20100000E+01  1.00800000E+00
  1.20100000E+01  1.20100000E+01  1.20100000E+01  1.20100000E+01  1.20100000E+01
  1.00800000E+00  1.00800000E+00  1.20100000E+01  1.00800000E+00  1.20100000E+01
  1.20100000E+01  1.00800000E+00  1.00800000E+00  1.00800000E+00  1.20100000E+01
  1.20100000E+01  1.00800000E+00  1.20100000E+01  1.20100000E+01  1.00800000E+00
  1.20100000E+01  1.20100000E+01  1.00800000E+00  1.20100000E+01  1.20100000E+01
  1.00800000E+00  1.20100000E+01  1.00800000E+00  1.00800000E+00  1.00800000E+00
  1.20100000E+01  1.20100000E+01  1.20100000E+01  1.20100000E+01  1.20100000E+01
  1.00800000E+00  1.20100000E+01  1.20100000E+01  1.20100000E+01  1.20100000E+01
  1.20100000E+01  1.00800000E+00  1.00800000E+00  1.20100000E+01  1.00800000E+00
  1.20100000E+01  1.20100000E+01  1.00800000E+00  1.00800000E+00  1.00800000E+00
  1.20100000E+01  1.20100000E+01  1.00800000E+00  1.20100000E+01  1.20100000E+01
  1.00800000E+00  1.20100000E+01  1.20100000E+01  1.00800000E+00  1.20100000E+01
  1.20100000E+01  1.00800000E+00  1.20100000E+01  1.00800000E+00  1.00800000E+00
  1.00800000E+00  1.20100000E+01  1.20100000E+01  1.20100000E+01  1.20100000E+01
  1.20100000E+01  1.00800000E+00  1.20100000E+01  1.20100000E+01  1.20100000E+01
  1.20100000E+01  1.20100000E+01  1.00800000E+00  1.00800000E+00  1.20100000E+01
  1.00800000E+00  1.20100000E+01  1.20100000E+01  1.00800000E+00  1.00800000E+00
  1.00800000E+00  1.20100000E+01  1.20100000E+01  1.00800000E+00  1.20100000E+01
  1.20100000E+01  1.00800000E+00  1.20100000E+01  1.20100000E+01  1.00800000E+00
  1.20100000E+01  1.20100000E+01  1.00800000E+00  1.20100000E+01  1.00800000E+00
  1.00800000E+00  1.00800000E+00  1.20100000E+01  1.20100000E+01  1.20100000E+01
  1.20100000E+01  1.20100000E+01  1.00800000E+00  1.20100000E+01  1.20100000E+01
  1.20100000E+01  1.20100000E+01  1.20100000E+01  1.00800000E+00  1.00800000E+00
  1.20100000E+01  1.00800000E+00  1.20100000E+01  1.20100000E+01  1.00800000E+00
  1.00800000E+00  1.00800000E+00  1.20100000E+01  1.20100000E+01  1.00800000E+00
  1.20100000E+01  1.20100000E+01  1.00800000E+00  1.20100000E+01  1.20100000E+01
  1.00800000E+00  1.20100000E+01  1.20100000E+01  1.00800000E+00  1.20100000E+01
  1.00800000E+00  1.00800000E+00  1.00800000E+00  1.20100000E+01  1.20100000E+01
  1.20100000E+01  1.20100000E+01  1.20100000E+01  1.00800000E+00  1.20100000E+01
  1.20100000E+01  1.20100000E+01  1.20100000E+01  1.20100000E+01  1.00800000E+00
  1.00800000E+00  1.20100000E+01  1.00800000E+00  1.20100000E+01  1.20100000E+01
  1.00800000E+00  1.00800000E+00  1.00800000E+00  1.20100000E+01  1.20100000E+01
  1.00800000E+00  1.20100000E+01  1.20100000E+01  1.00800000E+00  1.20100000E+01
  1.20100000E+01  1.00800000E+00  1.20100000E+01  1.20100000E+01  1.00800000E+00
  1.20100000E+01  1.00800000E+00  1.00800000E+00  1.00800000E+00  1.20100000E+01
  1.20100000E+01  1.20100000E+01  1.20100000E+01  1.20100000E+01  1.00800000E+00
  1.20100000E+01  1.20100000E+01  1.20100000E+01  1.20100000E+01  1.20100000E+01
  1.00800000E+00  1.00800000E+00  1.20100000E+01  1.00800000E+00  1.20100000E+01
  1.20100000E+01  1.00800000E+00  1.00800000E+00  1.00800000E+00  1.20100000E+01
  1.20100000E+01  1.00800000E+00  1.20100000E+01  1.20100000E+01  1.00800000E+00
  1.20100000E+01  1.20100000E+01  1.00800000E+00  1.20100000E+01  1.20100000E+01
  1.00800000E+00  1.20100000E+01  1.00800000E+00  1.00800000E+00  1.00800000E+00
  1.20100000E+01  1.20100000E+01  1.20100000E+01  1.20100000E+01  1.20100000E+01
  1.00800000E+00  1.20100000E+01  1.20100000E+01  1.20100000E+01  1.20100000E+01
  1.20100000E+01  1.00800000E+00  1.00800000E+00  1.20100000E+01  1.00800000E+00
  1.20100000E+01  1.20100000E+01  1.00800000E+00  1.00800000E+00  1.00800000E+00
  1.20100000E+01  1.20100000E+01  1.00800000E+00  1.20100000E+01  1.20100000E+01
  1.00800000E+00  1.20100000E+01  1.20100000E+01  1.00800000E+00  1.20100000E+01
  1.20100000E+01  1.00800000E+00  1.20100000E+01  1.00800000E+00  1.00800000E+00
  1.00800000E+00  1.20100000E+01  1.20100000E+01  1.20100000E+01  1.20100000E+01
  1.20100000E+01  1.00800000E+00  1.20100000E+01  1.20100000E+01  1.20100000E+01
  1.20100000E+01  1.20100000E+01  1.00800000E+00  1.00800000E+00  1.20100000E+01
  1.00800000E+00  1.20100000E+01  1.20100000E+01  1.00800000E+00  1.00800000E+00
  1.00800000E+00  1.20100000E+01  1.20100000E+01  1.00800000E+00  1.20100000E+01
  1.20100000E+01  1.00800000E+00  1.20100000E+01  1.20100000E+01  1.00800000E+00
  1.20100000E+01  1.20100000E+01  1.00800000E+00  1.20100000E+01  1.00800000E+00
  1.00800000E+00  1.00800000E+00  1.20100000E+01  1.20100000E+01  1.20100000E+01
  1.20100000E+01  1.20100000E+01  1.00800000E+00  1.20100000E+01  1.20100000E+01
  1.20100000E+01  1.20100000E+01  1.20100000E+01  1.00800000E+00  1.00800000E+00
  1.20100000E+01  1.00800000E+00  1.20100000E+01  1.20100000E+01  1.00800000E+00
  1.00800000E+00  1.00800000E+00  1.20100000E+01  1.20100000E+01  1.00800000E+00
  1.20100000E+01  1.20100000E+01  1.00800000E+00  1.20100000E+01  1.20100000E+01
  1.00800000E+00  1.20100000E+01  1.20100000E+01  1.00800000E+00  1.20100000E+01
  1.00800000E+00  1.00800000E+00  1.00800000E+00  1.20100000E+01  1.20100000E+01
  1.20100000E+01  1.20100000E+01  1.20100000E+01  1.00800000E+00  1.20100000E+01
  1.20100000E+01  1.20100000E+01  1.20100000E+01  1.20100000E+01  1.00800000E+00
  1.00800000E+00  1.20100000E+01  1.00800000E+00  1.20100000E+01  1.20100000E+01
  1.00800000E+00  1.00800000E+00  1.00800000E+00  1.20100000E+01  1.20100000E+01
  1.00800000E+00  1.20100000E+01  1.20100000E+01  1.00800000E+00  1.20100000E+01
  1.20100000E+01  1.00800000E+00  1.20100000E+01  1.20100000E+01  1.00800000E+00
  1.20100000E+01  1.00800000E+00  1.00800000E+00  1.00800000E+00  1.20100000E+01
  1.20100000E+01  1.20100000E+01  1.20100000E+01  1.20100000E+01  1.00800000E+00
  1.20100000E+01  1.20100000E+01  1.20100000E+01  1.20100000E+01  1.20100000E+01
  1.00800000E+00  1.00800000E+00  1.20100000E+01  1.00800000E+00  1.20100000E+01
  1.20100000E+01  1.00800000E+00  1.00800000E+00  1.00800000E+00  1.20100000E+01
  1.20100000E+01  1.00800000E+00  1.20100000E+01  1.20100000E+01  1.00800000E+00
  1.20100000E+01  1.20100000E+01  1.00800000E+00  1.20100000E+01  1.20100000E+01
  1.00800000E+00  1.20100000E+01  1.00800000E+00  1.00800000E+00  1.00800000E+00
  1.20100000E+01  1.20100000E+01  1.20100000E+01  1.20100000E+01  1.20100000E+01
  1.00800000E+00  1.20100000E+01  1.20100000E+01  1.20100000E+01  1.20100000E+01
  1.20100000E+01  1.00800000E+00  1.00800000E+00  1.20100000E+01  1.00800000E+00
  1.20100000E+01  1.20100000E+01  1.00800000E+00  1.00800000E+00  1.00800000E+00
  1.20100000E+01  1.20100000E+01  1.00800000E+00  1.20100000E+01  1.20100000E+01
  1.00800000E+00  1.20100000E+01  1.20100000E+01  1.00800000E+00  1.20100000E+01
  1.20100000E+01  1.00800000E+00  1.20100000E+01  1.00800000E+00  1.00800000E+00
  1.00800000E+00  1.20100000E+01  1.20100000E+01  1.20100000E+01  1.20100000E+01
  1.20100000E+01  1.00800000E+00  1.20100000E+01  1.20100000E+01  1.20100000E+01
  1.20100000E+01  1.20100000E+01  1.00800000E+00  1.00800000E+00  1.20100000E+01
  1.00800000E+00  1.20100000E+01  1.20100000E+01  1.00800000E+00  1.00800000E+00
  1.00800000E+00  1.20100000E+01  1.20100000E+01  1.00800000E+00  1.20100000E+01
  1.20100000E+01  1.00800000E+00  1.20100000E+01  1.20100000E+01  1.00800000E+00
  1.20100000E+01  1.20100000E+01  1.00800000E+00  1.20100000E+01  1.00800000E+00
  1.00800000E+00  1.00800000E+00  1.20100000E+01  1.20100000E+01  1.20100000E+01
  1.20100000E+01  1.20100000E+01  1.00800000E+00  1.20100000E+01  1.20100000E+01
  1.20100000E+01  1.20100000E+01  1.20100000E+01  1.00800000E+00  1.00800000E+00
  1.20100000E+01  1.00800000E+00  1.20100000E+01  1.20100000E+01  1.00800000E+00
  1.00800000E+00  1.00800000E+00  1.20100000E+01  1.20100000E+01  1.00800000E+00
  1.20100000E+01  1.20100000E+01  1.00800000E+00  1.20100000E+01  1.20100000E+01
  1.00800000E+00  1.20100000E+01  1.20100000E+01  1.00800000E+00  1.20100000E+01
  1.00800000E+00  1.00800000E+00  1.00800000E+00  1.20100000E+01  1.20100000E+01
  1.20100000E+01  1.20100000E+01  1.20100000E+01  1.00800000E+00  1.20100000E+01
  1.20100000E+01  1.20100000E+01  1.20100000E+01  1.20100000E+01  1.00800000E+00
  1.00800000E+00  1.20100000E+01  1.00800000E+00  1.20100000E+01  1.20100000E+01
  1.00800000E+00  1.00800000E+00  1.00800000E+00  1.20100000E+01  1.20100000E+01
  1.00800000E+00  1.20100000E+01  1.20100000E+01  1.00800000E+00  1.20100000E+01
  1.20100000E+01  1.00800000E+00  1.20100000E+01  1.20100000E+01  1.00800000E+00
  1.20100000E+01  1.00800000E+00  1.00800000E+00  1.00800000E+00  1.20100000E+01
  1.20100000E+01  1.20100000E+01  1.20100000E+01  1.20100000E+01  1.00800000E+00
  1.20100000E+01  1.20100000E+01  1.20100000E+01  1.20100000E+01  1.20100000E+01
  1.00800000E+00  1.00800000E+00  1.20100000E+01  1.00800000E+00  1.20100000E+01
  1.20100000E+01  1.00800000E+00  1.00800000E+00  1.00800000E+00  1.20100000E+01
  1.20100000E+01  1.00800000E+00  1.20100000E+01  1.20100000E+01  1.00800000E+00
  1.20100000E+01  1.20100000E+01  1.00800000E+00  1.20100000E+01  1.20100000E+01
  1.00800000E+00  1.20100000E+01  1.00800000E+00  1.00800000E+00  1.00800000E+00
  1.20100000E+01  1.20100000E+01  1.20100000E+01  1.20100000E+01  1.20100000E+01
  1.00800000E+00  1.20100000E+01  1.20100000E+01  1.20100000E+01  1.20100000E+01
  1.20100000E+01  1.00800000E+00  1.00800000E+00  1.20100000E+01  1.00800000E+00
  1.20100000E+01  1.20100000E+01  1.00800000E+00  1.00800000E+00  1.00800000E+00
  1.20100000E+01  1.20100000E+01  1.00800000E+00  1.20100000E+01  1.20100000E+01
  1.00800000E+00  1.20100000E+01  1.20100000E+01  1.00800000E+00  1.20100000E+01
  1.20100000E+01  1.00800000E+00  1.20100000E+01  1.00800000E+00  1.00800000E+00
  1.00800000E+00  1.20100000E+01  1.20100000E+01  1.20100000E+01  1.20100000E+01
  1.20100000E+01  1.00800000E+00  1.20100000E+01  1.20100000E+01  1.20100000E+01
  1.20100000E+01  1.20100000E+01  1.00800000E+00  1.00800000E+00  1.20100000E+01
  1.00800000E+00  1.20100000E+01  1.20100000E+01  1.00800000E+00  1.00800000E+00
  1.00800000E+00  1.20100000E+01  1.20100000E+01  1.00800000E+00  1.20100000E+01
  1.20100000E+01  1.00800000E+00  1.20100000E+01  1.20100000E+01  1.00800000E+00
  1.20100000E+01  1.20100000E+01  1.00800000E+00  1.20100000E+01  1.00800000E+00
  1.00800000E+00  1.00800000E+00  1.20100000E+01  1.20100000E+01  1.20100000E+01
  1.20100000E+01  1.20100000E+01  1.00800000E+00  1.20100000E+01  1.20100000E+01
  1.20100000E+01  1.20100000E+01  1.20100000E+01  1.00800000E+00  1.00800000E+00
  1.20100000E+01  1.00800000E+00  1.20100000E+01  1.20100000E+01  1.00800000E+00
  1.00800000E+00  1.00800000E+00  1.20100000E+01  1.20100000E+01  1.00800000E+00
  1.20100000E+01  1.20100000E+01  1.00800000E+00  1.20100000E+01  1.20100000E+01
  1.00800000E+00  1.20100000E+01  1.20100000E+01  1.00800000E+00  1.20100000E+01
  1.00800000E+00  1.00800000E+00  1.00800000E+00  1.20100000E+01  1.20100000E+01
  1.20100000E+01  1.20100000E+01  1.20100000E+01  1.00800000E+00  1.20100000E+01
  1.20100000E+01  1.20100000E+01  1.20100000E+01  1.20100000E+01  1.00800000E+00
  1.00800000E+00  1.20100000E+01  1.00800000E+00  1.20100000E+01  1.20100000E+01
  1.00800000E+00  1.00800000E+00  1.00800000E+00  1.20100000E+01  1.20100000E+01
  1.00800000E+00  1.20100000E+01  1.20100000E+01  1.00800000E+00  1.20100000E+01
  1.20100000E+01  1.00800000E+00  1.20100000E+01  1.20100000E+01  1.00800000E+00
  1.20100000E+01  1.00800000E+00  1.00800000E+00  1.00800000E+00  1.20100000E+01
  1.20100000E+01  1.20100000E+01  1.20100000E+01  1.20100000E+01  1.00800000E+00
  1.20100000E+01  1.20100000E+01  1.20100000E+01  1.20100000E+01  1.20100000E+01
  1.00800000E+00  1.00800000E+00  1.20100000E+01  1.00800000E+00  1.20100000E+01
  1.20100000E+01  1.00800000E+00  1.00800000E+00  1.00800000E+00  1.20100000E+01
  1.20100000E+01  1.00800000E+00  1.20100000E+01  1.20100000E+01  1.00800000E+00
  1.20100000E+01  1.20100000E+01  1.00800000E+00  1.20100000E+01  1.20100000E+01
  1.00800000E+00  1.20100000E+01  1.00800000E+00  1.00800000E+00  1.00800000E+00
  1.20100000E+01  1.20100000E+01  1.20100000E+01  1.20100000E+01  1.20100000E+01
  1.00800000E+00  1.20100000E+01  1.20100000E+01  1.20100000E+01  1.20100000E+01
  1.20100000E+01  1.00800000E+00  1.00800000E+00  1.20100000E+01  1.00800000E+00
  1.20100000E+01  1.20100000E+01  1.00800000E+00  1.00800000E+00  1.00800000E+00
  1.20100000E+01  1.20100000E+01  1.00800000E+00  1.20100000E+01  1.20100000E+01
  1.00800000E+00  1.20100000E+01  1.20100000E+01  1.00800000E+00  1.20100000E+01
  1.20100000E+01  1.00800000E+00  1.20100000E+01  1.00800000E+00  1.00800000E+00
  1.00800000E+00  1.20100000E+01  1.20100000E+01  1.20100000E+01  1.20100000E+01
  1.20100000E+01  1.00800000E+00  1.20100000E+01  1.20100000E+01  1.20100000E+01
  1.20100000E+01  1.20100000E+01  1.00800000E+00  1.00800000E+00  1.20100000E+01
  1.00800000E+00  1.20100000E+01  1.20100000E+01  1.00800000E+00  1.00800000E+00
  1.00800000E+00  1.20100000E+01  1.20100000E+01  1.00800000E+00  1.20100000E+01
  1.20100000E+01  1.00800000E+00  1.20100000E+01  1.20100000E+01  1.00800000E+00
  1.20100000E+01  1.20100000E+01  1.00800000E+00  1.20100000E+01  1.00800000E+00
  1.00800000E+00  1.00800000E+00  1.20100000E+01  1.20100000E+01  1.20100000E+01
  1.20100000E+01  1.20100000E+01  1.00800000E+00  1.20100000E+01  1.20100000E+01
  1.20100000E+01  1.20100000E+01  1.20100000E+01  1.00800000E+00  1.00800000E+00
  1.20100000E+01  1.00800000E+00  1.20100000E+01  1.20100000E+01  1.00800000E+00
  1.00800000E+00  1.00800000E+00  1.20100000E+01  1.20100000E+01  1.00800000E+00
  1.20100000E+01  1.20100000E+01  1.00800000E+00  1.20100000E+01  1.20100000E+01
  1.00800000E+00  1.20100000E+01  1.20100000E+01  1.00800000E+00  1.20100000E+01
  1.00800000E+00  1.00800000E+00  1.00800000E+00  1.20100000E+01  1.20100000E+01
  1.20100000E+01  1.20100000E+01  1.20100000E+01  1.00800000E+00  1.20100000E+01
  1.20100000E+01  1.20100000E+01  1.20100000E+01  1.20100000E+01  1.00800000E+00
  1.00800000E+00  1.20100000E+01  1.00800000E+00  1.20100000E+01  1.20100000E+01
  1.00800000E+00  1.00800000E+00  1.00800000E+00  1.20100000E+01  1.20100000E+01
  1.00800000E+00  1.20100000E+01  1.20100000E+01  1.00800000E+00  1.20100000E+01
  1.20100000E+01  1.00800000E+00  1.20100000E+01  1.20100000E+01  1.00800000E+00
  1.20100000E+01  1.00800000E+00  1.00800000E+00  1.00800000E+00  1.20100000E+01
  1.20100000E+01  1.20100000E+01  1.20100000E+01  1.20100000E+01  1.00800000E+00
  1.20100000E+01  1.20100000E+01  1.20100000E+01  1.20100000E+01  1.20100000E+01
  1.00800000E+00  1.00800000E+00  1.20100000E+01  1.00800000E+00  1.20100000E+01
  1.20100000E+01  1.00800000E+00  1.00800000E+00  1.00800000E+00  1.20100000E+01
  1.20100000E+01  1.00800000E+00  1.20100000E+01  1.20100000E+01  1.00800000E+00
  1.20100000E+01  1.20100000E+01  1.00800000E+00  1.20100000E+01  1.20100000E+01
  1.00800000E+00  1.20100000E+01  1.00800000E+00  1.00800000E+00  1.00800000E+00
  1.20100000E+01  1.20100000E+01  1.20100000E+01  1.20100000E+01  1.20100000E+01
  1.00800000E+00  1.20100000E+01  1.20100000E+01  1.20100000E+01  1.20100000E+01
  1.20100000E+01  1.00800000E+00  1.00800000E+00  1.20100000E+01  1.00800000E+00
  1.20100000E+01  1.20100000E+01  1.00800000E+00  1.00800000E+00  1.00800000E+00
  1.20100000E+01  1.20100000E+01  1.00800000E+00  1.20100000E+01  1.20100000E+01
  1.00800000E+00  1.20100000E+01  1.20100000E+01  1.00800000E+00  1.20100000E+01
  1.20100000E+01  1.00800000E+00  1.20100000E+01  1.00800000E+00  1.00800000E+00
  1.00800000E+00  1.20100000E+01  1.20100000E+01  1.20100000E+01  1.20100000E+01
  1.20100000E+01  1.00800000E+00  1.20100000E+01  1.20100000E+01  1.20100000E+01
  1.20100000E+01  1.20100000E+01  1.00800000E+00  1.00800000E+00  1.20100000E+01
  1.00800000E+00  1.20100000E+01  1.20100000E+01  1.00800000E+00  1.00800000E+00
  1.00800000E+00  1.20100000E+01  1.20100000E+01  1.00800000E+00  1.20100000E+01
  1.20100000E+01  1.00800000E+00  1.20100000E+01  1.20100000E+01  1.00800000E+00
  1.20100000E+01  1.20100000E+01  1.00800000E+00  1.20100000E+01  1.00800000E+00
  1.00800000E+00  1.00800000E+00  1.20100000E+01  1.20100000E+01  1.20100000E+01
  1.20100000E+01  1.20100000E+01  1.00800000E+00  1.20100000E+01  1.20100000E+01
  1.20100000E+01  1.20100000E+01  1.20100000E+01  1.00800000E+00  1.00800000E+00
  1.20100000E+01  1.00800000E+00  1.20100000E+01  1.20100000E+01  1.00800000E+00
  1.00800000E+00  1.00800000E+00  1.20100000E+01  1.20100000E+01  1.00800000E+00
  1.20100000E+01  1.20100000E+01  1.00800000E+00  1.20100000E+01  1.20100000E+01
  1.00800000E+00  1.20100000E+01  1.20100000E+01  1.00800000E+00  1.20100000E+01
  1.00800000E+00  1.00800000E+00  1.00800000E+00  1.20100000E+01  1.20100000E+01
  1.20100000E+01  1.20100000E+01  1.20100000E+01  1.00800000E+00  1.20100000E+01
  1.20100000E+01  1.20100000E+01  1.20100000E+01  1.20100000E+01  1.00800000E+00
  1.00800000E+00  1.20100000E+01  1.00800000E+00  1.20100000E+01  1.20100000E+01
  1.00800000E+00  1.00800000E+00  1.00800000E+00  1.20100000E+01  1.20100000E+01
  1.00800000E+00  1.20100000E+01  1.20100000E+01  1.00800000E+00  1.20100000E+01
  1.20100000E+01  1.00800000E+00  1.20100000E+01  1.20100000E+01  1.00800000E+00
  1.20100000E+01  1.00800000E+00  1.00800000E+00  1.00800000E+00  1.20100000E+01
  1.20100000E+01  1.20100000E+01  1.20100000E+01  1.20100000E+01  1.00800000E+00
  1.20100000E+01  1.20100000E+01  1.20100000E+01  1.20100000E+01  1.20100000E+01
  1.00800000E+00  1.00800000E+00  1.20100000E+01  1.00800000E+00  1.20100000E+01
  1.20100000E+01  1.00800000E+00  1.00800000E+00  1.00800000E+00  1.20100000E+01
  1.20100000E+01  1.00800000E+00  1.20100000E+01  1.20100000E+01  1.00800000E+00
  1.20100000E+01  1.20100000E+01  1.00800000E+00  1.20100000E+01  1.20100000E+01
  1.00800000E+00  1.20100000E+01  1.00800000E+00  1.00800000E+00  1.00800000E+00
  1.20100000E+01  1.20100000E+01  1.20100000E+01  1.20100000E+01  1.20100000E+01
  1.00800000E+00  1.20100000E+01  1.20100000E+01  1.20100000E+01  1.20100000E+01
  1.20100000E+01  1.00800000E+00  1.00800000E+00  1.20100000E+01  1.00800000E+00
  1.20100000E+01  1.20100000E+01  1.00800000E+00  1.00800000E+00  1.00800000E+00
  1.20100000E+01  1.20100000E+01  1.00800000E+00  1.20100000E+01  1.20100000E+01
  1.00800000E+00  1.20100000E+01  1.20100000E+01  1.00800000E+00  1.20100000E+01
  1.20100000E+01  1.00800000E+00  1.20100000E+01  1.00800000E+00  1.00800000E+00
  1.00800000E+00  1.20100000E+01  1.20100000E+01  1.20100000E+01  1.20100000E+01
  1.20100000E+01  1.00800000E+00  1.20100000E+01  1.20100000E+01  1.20100000E+01
  1.20100000E+01  1.20100000E+01  1.00800000E+00  1.00800000E+00  1.20100000E+01
  1.00800000E+00  1.20100000E+01  1.20100000E+01  1.00800000E+00  1.00800000E+00
  1.00800000E+00  1.20100000E+01  1.20100000E+01  1.00800000E+00  1.20100000E+01
  1.20100000E+01  1.00800000E+00  1.20100000E+01  1.20100000E+01  1.00800000E+00
  1.20100000E+01  1.20100000E+01  1.00800000E+00  1.20100000E+01  1.00800000E+00
  1.00800000E+00  1.00800000E+00  1.20100000E+01  1.20100000E+01  1.20100000E+01
  1.20100000E+01  1.20100000E+01  1.00800000E+00  1.20100000E+01  1.20100000E+01
  1.20100000E+01  1.20100000E+01  1.20100000E+01  1.00800000E+00  1.00800000E+00
  1.20100000E+01  1.00800000E+00  1.20100000E+01  1.20100000E+01  1.00800000E+00
  1.00800000E+00  1.00800000E+00  1.20100000E+01  1.20100000E+01  1.00800000E+00
  1.20100000E+01  1.20100000E+01  1.00800000E+00  1.20100000E+01  1.20100000E+01
  1.00800000E+00  1.20100000E+01  1.20100000E+01  1.00800000E+00  1.20100000E+01
  1.00800000E+00  1.00800000E+00  1.00800000E+00  1.20100000E+01  1.20100000E+01
  1.20100000E+01  1.20100000E+01  1.20100000E+01  1.00800000E+00  1.20100000E+01
  1.20100000E+01  1.20100000E+01  1.20100000E+01  1.20100000E+01  1.00800000E+00
  1.00800000E+00  1.20100000E+01  1.00800000E+00  1.20100000E+01  1.20100000E+01
  1.00800000E+00  1.00800000E+00  1.00800000E+00  1.20100000E+01  1.20100000E+01
  1.00800000E+00  1.20100000E+01  1.20100000E+01  1.00800000E+00  1.20100000E+01
  1.20100000E+01  1.00800000E+00  1.20100000E+01  1.20100000E+01  1.00800000E+00
  1.20100000E+01  1.00800000E+00  1.00800000E+00  1.00800000E+00  1.20100000E+01
  1.20100000E+01  1.20100000E+01  1.20100000E+01  1.20100000E+01  1.00800000E+00
  1.20100000E+01  1.20100000E+01  1.20100000E+01  1.20100000E+01  1.20100000E+01
  1.00800000E+00  1.00800000E+00  1.20100000E+01  1.00800000E+00  1.20100000E+01
  1.20100000E+01  1.00800000E+00  1.00800000E+00  1.00800000E+00  1.20100000E+01
  1.20100000E+01  1.00800000E+00  1.20100000E+01  1.20100000E+01  1.00800000E+00
  1.20100000E+01  1.20100000E+01  1.00800000E+00  1.20100000E+01  1.20100000E+01
  1.00800000E+00  1.20100000E+01  1.00800000E+00  1.00800000E+00  1.00800000E+00
  1.20100000E+01  1.20100000E+01  1.20100000E+01  1.20100000E+01  1.20100000E+01
  1.00800000E+00  1.20100000E+01  1.20100000E+01  1.20100000E+01  1.20100000E+01
  1.20100000E+01  1.00800000E+00  1.00800000E+00  1.20100000E+01  1.00800000E+00
  1.20100000E+01  1.20100000E+01  1.00800000E+00  1.00800000E+00  1.00800000E+00
  1.20100000E+01  1.20100000E+01  1.00800000E+00  1.20100000E+01  1.20100000E+01
  1.00800000E+00  1.20100000E+01  1.20100000E+01  1.00800000E+00  1.20100000E+01
  1.20100000E+01  1.00800000E+00  1.20100000E+01  1.00800000E+00  1.00800000E+00
  1.00800000E+00  1.20100000E+01  1.20100000E+01  1.20100000E+01  1.20100000E+01
  1.20100000E+01  1.00800000E+00  1.20100000E+01  1.20100000E+01  1.20100000E+01
  1.20100000E+01  1.20100000E+01  1.00800000E+00  1.00800000E+00  1.20100000E+01
  1.00800000E+00  1.20100000E+01  1.20100000E+01  1.00800000E+00  1.00800000E+00
  1.00800000E+00  1.20100000E+01  1.20100000E+01  1.00800000E+00  1.20100000E+01
  1.20100000E+01  1.00800000E+00  1.20100000E+01  1.20100000E+01  1.00800000E+00
  1.20100000E+01  1.20100000E+01  1.00800000E+00  1.20100000E+01  1.00800000E+00
  1.00800000E+00  1.00800000E+00  1.20100000E+01  1.20100000E+01  1.20100000E+01
  1.20100000E+01  1.20100000E+01  1.00800000E+00  1.20100000E+01  1.20100000E+01
  1.20100000E+01  1.20100000E+01  1.20100000E+01  1.00800000E+00  1.00800000E+00
  1.20100000E+01  1.00800000E+00  1.20100000E+01  1.20100000E+01  1.00800000E+00
  1.00800000E+00  1.00800000E+00  1.20100000E+01  1.20100000E+01  1.00800000E+00
  1.20100000E+01  1.20100000E+01  1.00800000E+00  1.20100000E+01  1.20100000E+01
  1.00800000E+00  1.20100000E+01  1.20100000E+01  1.00800000E+00  1.20100000E+01
  1.00800000E+00  1.00800000E+00  1.00800000E+00  1.20100000E+01  1.20100000E+01
  1.20100000E+01  1.20100000E+01  1.20100000E+01  1.00800000E+00  1.20100000E+01
  1.20100000E+01  1.20100000E+01  1.20100000E+01  1.20100000E+01  1.00800000E+00
  1.00800000E+00  1.20100000E+01  1.00800000E+00  1.20100000E+01  1.20100000E+01
  1.00800000E+00  1.00800000E+00  1.00800000E+00  1.20100000E+01  1.20100000E+01
  1.00800000E+00  1.20100000E+01  1.20100000E+01  1.00800000E+00  1.20100000E+01
  1.20100000E+01  1.00800000E+00  1.20100000E+01  1.20100000E+01  1.00800000E+00
  1.20100000E+01  1.00800000E+00  1.00800000E+00  1.00800000E+00  1.20100000E+01
  1.20100000E+01  1.20100000E+01  1.20100000E+01  1.20100000E+01  1.00800000E+00
  1.20100000E+01  1.20100000E+01  1.20100000E+01  1.20100000E+01  1.20100000E+01
  1.00800000E+00  1.00800000E+00  1.20100000E+01  1.00800000E+00  1.20100000E+01
  1.20100000E+01  1.00800000E+00  1.00800000E+00  1.00800000E+00  1.20100000E+01
  1.20100000E+01  1.00800000E+00  1.20100000E+01  1.20100000E+01  1.00800000E+00
  1.20100000E+01  1.20100000E+01  1.00800000E+00  1.20100000E+01  1.20100000E+01
  1.00800000E+00  1.20100000E+01  1.00800000E+00  1.00800000E+00  1.00800000E+00
  1.20100000E+01  1.20100000E+01  1.20100000E+01  1.20100000E+01  1.20100000E+01
  1.00800000E+00  1.20100000E+01  1.20100000E+01  1.20100000E+01  1.20100000E+01
  1.20100000E+01  1.00800000E+00  1.00800000E+00  1.20100000E+01  1.00800000E+00
  1.20100000E+01  1.20100000E+01  1.00800000E+00  1.00800000E+00  1.00800000E+00
  1.20100000E+01  1.20100000E+01  1.00800000E+00  1.20100000E+01  1.20100000E+01
  1.00800000E+00  1.20100000E+01  1.20100000E+01  1.00800000E+00  1.20100000E+01
  1.20100000E+01  1.00800000E+00  1.20100000E+01  1.00800000E+00  1.00800000E+00
  1.00800000E+00  1.20100000E+01  1.20100000E+01  1.20100000E+01  1.20100000E+01
  1.20100000E+01  1.00800000E+00  1.20100000E+01  1.20100000E+01  1.20100000E+01
  1.20100000E+01  1.20100000E+01  1.00800000E+00  1.00800000E+00  1.20100000E+01
  1.00800000E+00  1.20100000E+01  1.20100000E+01  1.00800000E+00  1.00800000E+00
  1.00800000E+00  1.20100000E+01  1.20100000E+01  1.00800000E+00  1.20100000E+01
  1.20100000E+01  1.00800000E+00  1.20100000E+01  1.20100000E+01  1.00800000E+00
  1.20100000E+01  1.20100000E+01  1.00800000E+00  1.20100000E+01  1.00800000E+00
  1.00800000E+00  1.00800000E+00  1.20100000E+01  1.20100000E+01  1.20100000E+01
  1.20100000E+01  1.20100000E+01  1.00800000E+00  1.20100000E+01  1.20100000E+01
  1.20100000E+01  1.20100000E+01  1.20100000E+01  1.00800000E+00  1.00800000E+00
  1.20100000E+01  1.00800000E+00  1.20100000E+01  1.20100000E+01  1.00800000E+00
  1.00800000E+00  1.00800000E+00  1.20100000E+01  1.20100000E+01  1.00800000E+00
  1.20100000E+01  1.20100000E+01  1.00800000E+00  1.20100000E+01  1.20100000E+01
  1.00800000E+00  1.20100000E+01  1.20100000E+01  1.00800000E+00  1.20100000E+01
  1.00800000E+00  1.00800000E+00  1.00800000E+00  1.20100000E+01  1.20100000E+01
  1.20100000E+01  1.20100000E+01  1.20100000E+01  1.00800000E+00  1.20100000E+01
  1.20100000E+01  1.20100000E+01  1.20100000E+01  1.20100000E+01  1.00800000E+00
  1.00800000E+00  1.20100000E+01  1.00800000E+00  1.20100000E+01  1.20100000E+01
  1.00800000E+00  1.00800000E+00  1.00800000E+00  1.20100000E+01  1.20100000E+01
  1.00800000E+00  1.20100000E+01  1.20100000E+01  1.00800000E+00  1.20100000E+01
  1.20100000E+01  1.00800000E+00  1.20100000E+01  1.20100000E+01  1.00800000E+00
  1.20100000E+01  1.00800000E+00  1.00800000E+00  1.00800000E+00  1.20100000E+01
  1.20100000E+01  1.20100000E+01  1.20100000E+01  1.20100000E+01  1.00800000E+00
  1.20100000E+01  1.20100000E+01  1.20100000E+01  1.20100000E+01  1.20100000E+01
  1.00800000E+00  1.00800000E+00  1.20100000E+01  1.00800000E+00  1.20100000E+01
  1.20100000E+01  1.00800000E+00  1.00800000E+00  1.00800000E+00  1.20100000E+01
  1.20100000E+01  1.00800000E+00  1.20100000E+01  1.20100000E+01  1.00800000E+00
  1.20100000E+01  1.20100000E+01  1.00800000E+00  1.20100000E+01  1.20100000E+01
  1.00800000E+00  1.20100000E+01  1.00800000E+00  1.00800000E+00  1.00800000E+00
  1.20100000E+01  1.20100000E+01  1.20100000E+01  1.20100000E+01  1.20100000E+01
  1.00800000E+00  1.20100000E+01  1.20100000E+01  1.20100000E+01  1.20100000E+01
  1.20100000E+01  1.00800000E+00  1.00800000E+00  1.20100000E+01  1.00800000E+00
  1.20100000E+01  1.20100000E+01  1.00800000E+00  1.00800000E+00  1.00800000E+00
  1.20100000E+01  1.20100000E+01  1.00800000E+00  1.20100000E+01  1.20100000E+01
  1.00800000E+00  1.20100000E+01  1.20100000E+01  1.00800000E+00  1.20100000E+01
  1.20100000E+01  1.00800000E+00  1.20100000E+01  1.00800000E+00  1.00800000E+00
  1.00800000E+00  1.20100000E+01  1.20100000E+01  1.20100000E+01  1.20100000E+01
  1.20100000E+01  1.00800000E+00  1.20100000E+01  1.20100000E+01  1.20100000E+01
  1.20100000E+01  1.20100000E+01  1.00800000E+00  1.00800000E+00  1.20100000E+01
  1.00800000E+00  1.20100000E+01  1.20100000E+01  1.00800000E+00  1.00800000E+00
  1.00800000E+00  1.20100000E+01  1.20100000E+01  1.00800000E+00  1.20100000E+01
  1.20100000E+01  1.00800000E+00  1.20100000E+01  1.20100000E+01  1.00800000E+00
  1.20100000E+01  1.20100000E+01  1.00800000E+00  1.20100000E+01  1.00800000E+00
  1.00800000E+00  1.00800000E+00  1.20100000E+01  1.20100000E+01  1.20100000E+01
  1.20100000E+01  1.20100000E+01  1.00800000E+00  1.20100000E+01  1.20100000E+01
  1.20100000E+01  1.20100000E+01  1.20100000E+01  1.00800000E+00  1.00800000E+00
  1.20100000E+01  1.00800000E+00  1.20100000E+01  1.20100000E+01  1.00800000E+00
  1.00800000E+00  1.00800000E+00  1.20100000E+01  1.20100000E+01  1.00800000E+00
  1.20100000E+01  1.20100000E+01  1.00800000E+00  1.20100000E+01  1.20100000E+01
  1.00800000E+00  1.20100000E+01  1.20100000E+01  1.00800000E+00  1.20100000E+01
  1.00800000E+00  1.00800000E+00  1.00800000E+00  1.20100000E+01  1.20100000E+01
  1.20100000E+01  1.20100000E+01  1.20100000E+01  1.00800000E+00  1.20100000E+01
  1.20100000E+01  1.20100000E+01  1.20100000E+01  1.20100000E+01  1.00800000E+00
  1.00800000E+00  1.20100000E+01  1.00800000E+00  1.20100000E+01  1.20100000E+01
  1.00800000E+00  1.00800000E+00  1.00800000E+00  1.20100000E+01  1.20100000E+01
  1.00800000E+00  1.20100000E+01  1.20100000E+01  1.00800000E+00  1.20100000E+01
  1.20100000E+01  1.00800000E+00  1.20100000E+01  1.20100000E+01  1.00800000E+00
  1.20100000E+01  1.00800000E+00  1.00800000E+00  1.00800000E+00  1.20100000E+01
  1.20100000E+01  1.20100000E+01  1.20100000E+01  1.20100000E+01  1.00800000E+00
  1.20100000E+01  1.20100000E+01  1.20100000E+01  1.20100000E+01  1.20100000E+01
  1.00800000E+00  1.00800000E+00  1.20100000E+01  1.00800000E+00  1.20100000E+01
  1.20100000E+01  1.00800000E+00  1.00800000E+00  1.00800000E+00  1.20100000E+01
  1.20100000E+01  1.00800000E+00  1.20100000E+01  1.20100000E+01  1.00800000E+00
  1.20100000E+01  1.20100000E+01  1.00800000E+00  1.20100000E+01  1.20100000E+01
  1.00800000E+00  1.20100000E+01  1.00800000E+00  1.00800000E+00  1.00800000E+00
  1.20100000E+01  1.20100000E+01  1.20100000E+01  1.20100000E+01  1.20100000E+01
  1.00800000E+00  1.20100000E+01  1.20100000E+01  1.20100000E+01  1.20100000E+01
  1.20100000E+01  1.00800000E+00  1.00800000E+00  1.20100000E+01  1.00800000E+00
  1.20100000E+01  1.20100000E+01  1.00800000E+00  1.00800000E+00  1.00800000E+00
  1.20100000E+01  1.20100000E+01  1.00800000E+00  1.20100000E+01  1.20100000E+01
  1.00800000E+00  1.20100000E+01  1.20100000E+01  1.00800000E+00  1.20100000E+01
  1.20100000E+01  1.00800000E+00  1.20100000E+01  1.00800000E+00  1.00800000E+00
  1.00800000E+00  1.20100000E+01  1.20100000E+01  1.20100000E+01  1.20100000E+01
  1.20100000E+01  1.00800000E+00  1.20100000E+01  1.20100000E+01  1.20100000E+01
  1.20100000E+01  1.20100000E+01  1.00800000E+00  1.00800000E+00  1.20100000E+01
  1.00800000E+00  1.20100000E+01  1.20100000E+01  1.00800000E+00  1.00800000E+00
  1.00800000E+00  1.20100000E+01  1.20100000E+01  1.00800000E+00  1.20100000E+01
  1.20100000E+01  1.00800000E+00  1.20100000E+01  1.20100000E+01  1.00800000E+00
  1.20100000E+01  1.20100000E+01  1.00800000E+00  1.20100000E+01  1.00800000E+00
  1.00800000E+00  1.00800000E+00  1.20100000E+01  1.20100000E+01  1.20100000E+01
  1.20100000E+01  1.20100000E+01  1.00800000E+00  1.20100000E+01  1.20100000E+01
  1.20100000E+01  1.20100000E+01  1.20100000E+01  1.00800000E+00  1.00800000E+00
  1.20100000E+01  1.00800000E+00  1.20100000E+01  1.20100000E+01  1.00800000E+00
  1.00800000E+00  1.00800000E+00  1.20100000E+01  1.20100000E+01  1.00800000E+00
  1.20100000E+01  1.20100000E+01  1.00800000E+00  1.20100000E+01  1.20100000E+01
  1.00800000E+00  1.20100000E+01  1.20100000E+01  1.00800000E+00  1.20100000E+01
  1.00800000E+00  1.00800000E+00  1.00800000E+00  1.20100000E+01  1.20100000E+01
  1.20100000E+01  1.20100000E+01  1.20100000E+01  1.00800000E+00  1.20100000E+01
  1.20100000E+01  1.20100000E+01  1.20100000E+01  1.20100000E+01  1.00800000E+00
  1.00800000E+00  1.20100000E+01  1.00800000E+00  1.20100000E+01  1.20100000E+01
  1.00800000E+00  1.00800000E+00  1.00800000E+00  1.20100000E+01  1.20100000E+01
  1.00800000E+00  1.20100000E+01  1.20100000E+01  1.00800000E+00  1.20100000E+01
  1.20100000E+01  1.00800000E+00  1.20100000E+01  1.20100000E+01  1.00800000E+00
  1.20100000E+01  1.00800000E+00  1.00800000E+00  1.00800000E+00  1.20100000E+01
  1.20100000E+01  1.20100000E+01  1.20100000E+01  1.20100000E+01  1.00800000E+00
  1.20100000E+01  1.20100000E+01  1.20100000E+01  1.20100000E+01  1.20100000E+01
  1.00800000E+00  1.00800000E+00  1.20100000E+01  1.00800000E+00  1.20100000E+01
  1.20100000E+01  1.00800000E+00  1.00800000E+00  1.00800000E+00  1.20100000E+01
  1.20100000E+01  1.00800000E+00  1.20100000E+01  1.20100000E+01  1.00800000E+00
  1.20100000E+01  1.20100000E+01  1.00800000E+00  1.20100000E+01  1.20100000E+01
  1.00800000E+00  1.20100000E+01  1.00800000E+00  1.00800000E+00  1.00800000E+00
  1.20100000E+01  1.20100000E+01  1.20100000E+01  1.20100000E+01  1.20100000E+01
  1.00800000E+00  1.20100000E+01  1.20100000E+01  1.20100000E+01  1.20100000E+01
  1.20100000E+01  1.00800000E+00  1.00800000E+00  1.20100000E+01  1.00800000E+00
  1.20100000E+01  1.20100000E+01  1.00800000E+00  1.00800000E+00  1.00800000E+00
  1.20100000E+01  1.20100000E+01  1.00800000E+00  1.20100000E+01  1.20100000E+01
  1.00800000E+00  1.20100000E+01  1.20100000E+01  1.00800000E+00  1.20100000E+01
  1.20100000E+01  1.00800000E+00  1.20100000E+01  1.00800000E+00  1.00800000E+00
  1.00800000E+00  1.20100000E+01  1.20100000E+01  1.20100000E+01  1.20100000E+01
  1.20100000E+01  1.00800000E+00  1.20100000E+01  1.20100000E+01  1.20100000E+01
  1.20100000E+01  1.20100000E+01  1.00800000E+00  1.00800000E+00  1.20100000E+01
  1.00800000E+00  1.20100000E+01  1.20100000E+01  1.00800000E+00  1.00800000E+00
  1.00800000E+00  1.20100000E+01  1.20100000E+01  1.00800000E+00  1.20100000E+01
  1.20100000E+01  1.00800000E+00  1.20100000E+01  1.20100000E+01  1.00800000E+00
  1.20100000E+01  1.20100000E+01  1.00800000E+00  1.20100000E+01  1.00800000E+00
  1.00800000E+00  1.00800000E+00  1.20100000E+01  1.20100000E+01  1.20100000E+01
  1.20100000E+01  1.20100000E+01  1.00800000E+00  1.20100000E+01  1.20100000E+01
  1.20100000E+01  1.20100000E+01  1.20100000E+01  1.00800000E+00  1.00800000E+00
  1.20100000E+01  1.00800000E+00  1.20100000E+01  1.20100000E+01  1.00800000E+00
  1.00800000E+00  1.00800000E+00  1.20100000E+01  1.20100000E+01  1.00800000E+00
  1.20100000E+01  1.20100000E+01  1.00800000E+00  1.20100000E+01  1.20100000E+01
  1.00800000E+00  1.20100000E+01  1.20100000E+01  1.00800000E+00  1.20100000E+01
  1.00800000E+00  1.00800000E+00  1.00800000E+00  1.20100000E+01  1.20100000E+01
  1.20100000E+01  1.20100000E+01  1.20100000E+01  1.00800000E+00  1.20100000E+01
  1.20100000E+01  1.20100000E+01  1.20100000E+01  1.20100000E+01  1.00800000E+00
  1.00800000E+00  1.20100000E+01  1.00800000E+00  1.20100000E+01  1.20100000E+01
  1.00800000E+00  1.00800000E+00  1.00800000E+00  1.20100000E+01  1.20100000E+01
  1.00800000E+00  1.20100000E+01  1.20100000E+01  1.00800000E+00  1.20100000E+01
  1.20100000E+01  1.00800000E+00  1.20100000E+01  1.20100000E+01  1.00800000E+00
  1.20100000E+01  1.00800000E+00  1.00800000E+00  1.00800000E+00  1.20100000E+01
  1.20100000E+01  1.20100000E+01  1.20100000E+01  1.20100000E+01  1.00800000E+00
  1.20100000E+01  1.20100000E+01  1.20100000E+01  1.20100000E+01  1.20100000E+01
  1.00800000E+00  1.00800000E+00  1.20100000E+01  1.00800000E+00  1.20100000E+01
  1.20100000E+01  1.00800000E+00  1.00800000E+00  1.00800000E+00  1.20100000E+01
  1.20100000E+01  1.00800000E+00  1.20100000E+01  1.20100000E+01  1.00800000E+00
  1.20100000E+01  1.20100000E+01  1.00800000E+00  1.20100000E+01  1.20100000E+01
  1.00800000E+00  1.20100000E+01  1.00800000E+00  1.00800000E+00  1.00800000E+00
  1.20100000E+01  1.20100000E+01  1.20100000E+01  1.20100000E+01  1.20100000E+01
  1.00800000E+00  1.20100000E+01  1.20100000E+01  1.20100000E+01  1.20100000E+01
  1.20100000E+01  1.00800000E+00  1.00800000E+00  1.20100000E+01  1.00800000E+00
  1.20100000E+01  1.20100000E+01  1.00800000E+00  1.00800000E+00  1.00800000E+00
  1.20100000E+01  1.20100000E+01  1.00800000E+00  1.20100000E+01  1.20100000E+01
  1.00800000E+00  1.20100000E+01  1.20100000E+01  1.00800000E+00  1.20100000E+01
  1.20100000E+01  1.00800000E+00  1.20100000E+01  1.00800000E+00  1.00800000E+00
  1.00800000E+00  1.20100000E+01  1.20100000E+01  1.20100000E+01  1.20100000E+01
  1.20100000E+01  1.00800000E+00  1.20100000E+01  1.20100000E+01  1.20100000E+01
  1.20100000E+01  1.20100000E+01  1.00800000E+00  1.00800000E+00  1.20100000E+01
  1.00800000E+00  1.20100000E+01  1.20100000E+01  1.00800000E+00  1.00800000E+00
  1.00800000E+00  1.20100000E+01  1.20100000E+01  1.00800000E+00  1.20100000E+01
  1.20100000E+01  1.00800000E+00  1.20100000E+01  1.20100000E+01  1.00800000E+00
  1.20100000E+01  1.20100000E+01  1.00800000E+00  1.20100000E+01  1.00800000E+00
  1.00800000E+00  1.00800000E+00  1.20100000E+01  1.20100000E+01  1.20100000E+01
  1.20100000E+01  1.20100000E+01  1.00800000E+00  1.20100000E+01  1.20100000E+01
  1.20100000E+01  1.20100000E+01  1.20100000E+01  1.00800000E+00  1.00800000E+00
  1.20100000E+01  1.00800000E+00  1.20100000E+01  1.20100000E+01  1.00800000E+00
  1.00800000E+00  1.00800000E+00  1.20100000E+01  1.20100000E+01  1.00800000E+00
  1.20100000E+01  1.20100000E+01  1.00800000E+00  1.20100000E+01  1.20100000E+01
  1.00800000E+00  1.20100000E+01  1.20100000E+01  1.00800000E+00  1.20100000E+01
  1.00800000E+00  1.00800000E+00  1.00800000E+00  1.20100000E+01  1.20100000E+01
  1.20100000E+01  1.20100000E+01  1.20100000E+01  1.00800000E+00  1.20100000E+01
  1.20100000E+01  1.20100000E+01  1.20100000E+01  1.20100000E+01  1.00800000E+00
  1.00800000E+00  1.20100000E+01  1.00800000E+00  1.20100000E+01  1.20100000E+01
  1.00800000E+00  1.00800000E+00  1.00800000E+00  1.20100000E+01  1.20100000E+01
  1.00800000E+00  1.20100000E+01  1.20100000E+01  1.00800000E+00  1.20100000E+01
  1.20100000E+01  1.00800000E+00  1.20100000E+01  1.20100000E+01  1.00800000E+00
  1.20100000E+01  1.00800000E+00  1.00800000E+00  1.00800000E+00  1.20100000E+01
  1.20100000E+01  1.20100000E+01  1.20100000E+01  1.20100000E+01  1.00800000E+00
  1.20100000E+01  1.20100000E+01  1.20100000E+01  1.20100000E+01  1.20100000E+01
  1.00800000E+00  1.00800000E+00  1.20100000E+01  1.00800000E+00  1.20100000E+01
  1.20100000E+01  1.00800000E+00  1.00800000E+00  1.00800000E+00  1.20100000E+01
  1.20100000E+01  1.00800000E+00  1.20100000E+01  1.20100000E+01  1.00800000E+00
  1.20100000E+01  1.20100000E+01  1.00800000E+00  1.20100000E+01  1.20100000E+01
  1.00800000E+00  1.20100000E+01  1.00800000E+00  1.00800000E+00  1.00800000E+00
  1.20100000E+01  1.20100000E+01  1.20100000E+01  1.20100000E+01  1.20100000E+01
  1.00800000E+00  1.20100000E+01  1.20100000E+01  1.20100000E+01  1.20100000E+01
  1.20100000E+01  1.00800000E+00  1.00800000E+00  1.20100000E+01  1.00800000E+00
  1.20100000E+01  1.20100000E+01  1.00800000E+00  1.00800000E+00  1.00800000E+00
  1.20100000E+01  1.20100000E+01  1.00800000E+00  1.20100000E+01  1.20100000E+01
  1.00800000E+00  1.20100000E+01  1.20100000E+01  1.00800000E+00  1.20100000E+01
  1.20100000E+01  1.00800000E+00  1.20100000E+01  1.00800000E+00  1.00800000E+00
  1.00800000E+00  1.20100000E+01  1.20100000E+01  1.20100000E+01  1.20100000E+01
  1.20100000E+01  1.00800000E+00  1.20100000E+01  1.20100000E+01  1.20100000E+01
  1.20100000E+01  1.20100000E+01  1.00800000E+00  1.00800000E+00  1.20100000E+01
  1.00800000E+00  1.20100000E+01  1.20100000E+01  1.00800000E+00  1.00800000E+00
  1.00800000E+00  1.20100000E+01  1.20100000E+01  1.00800000E+00  1.20100000E+01
  1.20100000E+01  1.00800000E+00  1.20100000E+01  1.20100000E+01  1.00800000E+00
  1.20100000E+01  1.20100000E+01  1.00800000E+00  1.20100000E+01  1.00800000E+00
  1.00800000E+00  1.00800000E+00  1.20100000E+01  1.20100000E+01  1.20100000E+01
  1.20100000E+01  1.20100000E+01  1.00800000E+00  1.20100000E+01  1.20100000E+01
  1.20100000E+01  1.20100000E+01  1.20100000E+01  1.00800000E+00  1.00800000E+00
  1.20100000E+01  1.00800000E+00  1.20100000E+01  1.20100000E+01  1.00800000E+00
  1.00800000E+00  1.00800000E+00  1.20100000E+01  1.20100000E+01  1.00800000E+00
  1.20100000E+01  1.20100000E+01  1.00800000E+00  1.20100000E+01  1.20100000E+01
  1.00800000E+00  1.20100000E+01  1.20100000E+01  1.00800000E+00  1.20100000E+01
  1.00800000E+00  1.00800000E+00  1.00800000E+00  1.20100000E+01  1.20100000E+01
  1.20100000E+01  1.20100000E+01  1.20100000E+01  1.00800000E+00  1.20100000E+01
  1.20100000E+01  1.20100000E+01  1.20100000E+01  1.20100000E+01  1.00800000E+00
  1.00800000E+00  1.20100000E+01  1.00800000E+00  1.20100000E+01  1.20100000E+01
  1.00800000E+00  1.00800000E+00  1.00800000E+00  1.20100000E+01  1.20100000E+01
  1.00800000E+00  1.20100000E+01  1.20100000E+01  1.00800000E+00  1.20100000E+01
  1.20100000E+01  1.00800000E+00  1.20100000E+01  1.20100000E+01  1.00800000E+00
  1.20100000E+01  1.00800000E+00  1.00800000E+00  1.00800000E+00  1.20100000E+01
  1.20100000E+01  1.20100000E+01  1.20100000E+01  1.20100000E+01  1.00800000E+00
  1.20100000E+01  1.20100000E+01  1.20100000E+01  1.20100000E+01  1.20100000E+01
  1.00800000E+00  1.00800000E+00  1.20100000E+01  1.00800000E+00  1.20100000E+01
  1.20100000E+01  1.00800000E+00  1.00800000E+00  1.00800000E+00  1.20100000E+01
  1.20100000E+01  1.00800000E+00  1.20100000E+01  1.20100000E+01  1.00800000E+00
  1.20100000E+01  1.20100000E+01  1.00800000E+00  1.20100000E+01  1.20100000E+01
  1.00800000E+00  1.20100000E+01  1.00800000E+00  1.00800000E+00  1.00800000E+00
  1.20100000E+01  1.20100000E+01  1.20100000E+01  1.20100000E+01  1.20100000E+01
  1.00800000E+00  1.20100000E+01  1.20100000E+01  1.20100000E+01  1.20100000E+01
  1.20100000E+01  1.00800000E+00  1.00800000E+00  1.20100000E+01  1.00800000E+00
  1.20100000E+01  1.20100000E+01  1.00800000E+00  1.00800000E+00  1.00800000E+00
  1.20100000E+01  1.20100000E+01  1.00800000E+00  1.20100000E+01  1.20100000E+01
  1.00800000E+00  1.20100000E+01  1.20100000E+01  1.00800000E+00  1.20100000E+01
  1.20100000E+01  1.00800000E+00  1.20100000E+01  1.00800000E+00  1.00800000E+00
  1.00800000E+00  1.20100000E+01  1.20100000E+01  1.20100000E+01  1.20100000E+01
  1.20100000E+01  1.00800000E+00  1.20100000E+01  1.20100000E+01  1.20100000E+01
  1.20100000E+01  1.20100000E+01  1.00800000E+00  1.00800000E+00  1.20100000E+01
  1.00800000E+00  1.20100000E+01  1.20100000E+01  1.00800000E+00  1.00800000E+00
  1.00800000E+00  1.20100000E+01  1.20100000E+01  1.00800000E+00  1.20100000E+01
  1.20100000E+01  1.00800000E+00  1.20100000E+01  1.20100000E+01  1.00800000E+00
  1.20100000E+01  1.20100000E+01  1.00800000E+00  1.20100000E+01  1.00800000E+00
  1.00800000E+00  1.00800000E+00  1.20100000E+01  1.20100000E+01  1.20100000E+01
  1.20100000E+01  1.20100000E+01  1.00800000E+00  1.20100000E+01  1.20100000E+01
  1.20100000E+01  1.20100000E+01  1.20100000E+01  1.00800000E+00  1.00800000E+00
  1.20100000E+01  1.00800000E+00  1.20100000E+01  1.20100000E+01  1.00800000E+00
  1.00800000E+00  1.00800000E+00  1.20100000E+01  1.20100000E+01  1.00800000E+00
  1.20100000E+01  1.20100000E+01  1.00800000E+00  1.20100000E+01  1.20100000E+01
  1.00800000E+00  1.20100000E+01  1.20100000E+01  1.00800000E+00  1.20100000E+01
  1.00800000E+00  1.00800000E+00  1.00800000E+00  1.20100000E+01  1.20100000E+01
  1.20100000E+01  1.20100000E+01  1.20100000E+01  1.00800000E+00  1.20100000E+01
  1.20100000E+01  1.20100000E+01  1.20100000E+01  1.20100000E+01  1.00800000E+00
  1.00800000E+00  1.20100000E+01  1.00800000E+00  1.20100000E+01  1.20100000E+01
  1.00800000E+00  1.00800000E+00  1.00800000E+00  1.20100000E+01  1.20100000E+01
  1.00800000E+00  1.20100000E+01  1.20100000E+01  1.00800000E+00  1.20100000E+01
  1.20100000E+01  1.00800000E+00  1.20100000E+01  1.20100000E+01  1.00800000E+00
  1.20100000E+01  1.00800000E+00  1.00800000E+00  1.00800000E+00  1.20100000E+01
  1.20100000E+01  1.20100000E+01  1.20100000E+01  1.20100000E+01  1.00800000E+00
  1.20100000E+01  1.20100000E+01  1.20100000E+01  1.20100000E+01  1.20100000E+01
  1.00800000E+00  1.00800000E+00  1.20100000E+01  1.00800000E+00  1.20100000E+01
  1.20100000E+01  1.00800000E+00  1.00800000E+00  1.00800000E+00  1.20100000E+01
  1.20100000E+01  1.00800000E+00  1.20100000E+01  1.20100000E+01  1.00800000E+00
  1.20100000E+01  1.20100000E+01  1.00800000E+00  1.20100000E+01  1.20100000E+01
  1.00800000E+00  1.20100000E+01  1.00800000E+00  1.00800000E+00  1.00800000E+00
  1.20100000E+01  1.20100000E+01  1.20100000E+01  1.20100000E+01  1.20100000E+01
  1.00800000E+00  1.20100000E+01  1.20100000E+01  1.20100000E+01  1.20100000E+01
  1.20100000E+01  1.00800000E+00  1.00800000E+00  1.20100000E+01  1.00800000E+00
  1.20100000E+01  1.20100000E+01  1.00800000E+00  1.00800000E+00  1.00800000E+00
  1.20100000E+01  1.20100000E+01  1.00800000E+00  1.20100000E+01  1.20100000E+01
  1.00800000E+00  1.20100000E+01  1.20100000E+01  1.00800000E+00  1.20100000E+01
  1.20100000E+01  1.00800000E+00  1.20100000E+01  1.00800000E+00  1.00800000E+00
  1.00800000E+00  1.20100000E+01  1.20100000E+01  1.20100000E+01  1.20100000E+01
  1.20100000E+01  1.00800000E+00  1.20100000E+01  1.20100000E+01  1.20100000E+01
  1.20100000E+01  1.20100000E+01  1.00800000E+00  1.00800000E+00  1.20100000E+01
  1.00800000E+00  1.20100000E+01  1.20100000E+01  1.00800000E+00  1.00800000E+00
  1.00800000E+00  1.20100000E+01  1.20100000E+01  1.00800000E+00  1.20100000E+01
  1.20100000E+01  1.00800000E+00  1.20100000E+01  1.20100000E+01  1.00800000E+00
  1.20100000E+01  1.20100000E+01  1.00800000E+00  1.20100000E+01  1.00800000E+00
  1.00800000E+00  1.00800000E+00  1.20100000E+01  1.20100000E+01  1.20100000E+01
  1.20100000E+01  1.20100000E+01  1.00800000E+00  1.20100000E+01  1.20100000E+01
  1.20100000E+01  1.20100000E+01  1.20100000E+01  1.00800000E+00  1.00800000E+00
  1.20100000E+01  1.00800000E+00  1.20100000E+01  1.20100000E+01  1.00800000E+00
  1.00800000E+00  1.00800000E+00  1.20100000E+01  1.20100000E+01  1.00800000E+00
  1.20100000E+01  1.20100000E+01  1.00800000E+00  1.20100000E+01  1.20100000E+01
  1.00800000E+00  1.20100000E+01  1.20100000E+01  1.00800000E+00  1.20100000E+01
  1.00800000E+00  1.00800000E+00  1.00800000E+00  1.20100000E+01  1.20100000E+01
  1.20100000E+01  1.20100000E+01  1.20100000E+01  1.00800000E+00  1.20100000E+01
  1.20100000E+01  1.20100000E+01  1.20100000E+01  1.20100000E+01  1.00800000E+00
  1.00800000E+00  1.20100000E+01  1.00800000E+00  1.20100000E+01  1.20100000E+01
  1.00800000E+00  1.00800000E+00  1.00800000E+00  1.20100000E+01  1.20100000E+01
  1.00800000E+00  1.20100000E+01  1.20100000E+01  1.00800000E+00  1.20100000E+01
  1.20100000E+01  1.00800000E+00  1.20100000E+01  1.20100000E+01  1.00800000E+00
  1.20100000E+01  1.00800000E+00  1.00800000E+00  1.00800000E+00  1.20100000E+01
  1.20100000E+01  1.20100000E+01  1.20100000E+01  1.20100000E+01  1.00800000E+00
  1.20100000E+01  1.20100000E+01  1.20100000E+01  1.20100000E+01  1.20100000E+01
  1.00800000E+00  1.00800000E+00  1.20100000E+01  1.00800000E+00  1.20100000E+01
  1.20100000E+01  1.00800000E+00  1.00800000E+00  1.00800000E+00  1.20100000E+01
  1.20100000E+01  1.00800000E+00  1.20100000E+01  1.20100000E+01  1.00800000E+00
  1.20100000E+01  1.20100000E+01  1.00800000E+00  1.20100000E+01  1.20100000E+01
  1.00800000E+00  1.20100000E+01  1.00800000E+00  1.00800000E+00  1.00800000E+00
  1.20100000E+01  1.20100000E+01  1.20100000E+01  1.20100000E+01  1.20100000E+01
  1.00800000E+00  1.20100000E+01  1.20100000E+01  1.20100000E+01  1.20100000E+01
  1.20100000E+01  1.00800000E+00  1.00800000E+00  1.20100000E+01  1.00800000E+00
  1.20100000E+01  1.20100000E+01  1.00800000E+00  1.00800000E+00  1.00800000E+00
  1.20100000E+01  1.20100000E+01  1.00800000E+00  1.20100000E+01  1.20100000E+01
  1.00800000E+00  1.20100000E+01  1.20100000E+01  1.00800000E+00  1.20100000E+01
  1.20100000E+01  1.00800000E+00  1.20100000E+01  1.00800000E+00  1.00800000E+00
  1.00800000E+00  1.20100000E+01  1.20100000E+01  1.20100000E+01  1.20100000E+01
  1.20100000E+01  1.00800000E+00  1.20100000E+01  1.20100000E+01  1.20100000E+01
  1.20100000E+01  1.20100000E+01  1.00800000E+00  1.00800000E+00  1.20100000E+01
  1.00800000E+00  1.20100000E+01  1.20100000E+01  1.00800000E+00  1.00800000E+00
  1.00800000E+00  1.20100000E+01  1.20100000E+01  1.00800000E+00  1.20100000E+01
  1.20100000E+01  1.00800000E+00  1.20100000E+01  1.20100000E+01  1.00800000E+00
  1.20100000E+01  1.20100000E+01  1.00800000E+00  1.20100000E+01  1.00800000E+00
  1.00800000E+00  1.00800000E+00  1.20100000E+01  1.20100000E+01  1.20100000E+01
  1.20100000E+01  1.20100000E+01  1.00800000E+00  1.20100000E+01  1.20100000E+01
  1.20100000E+01  1.20100000E+01  1.20100000E+01  1.00800000E+00  1.00800000E+00
  1.20100000E+01  1.00800000E+00  1.20100000E+01  1.20100000E+01  1.00800000E+00
  1.00800000E+00  1.00800000E+00  1.20100000E+01  1.20100000E+01  1.00800000E+00
  1.20100000E+01  1.20100000E+01  1.00800000E+00  1.20100000E+01  1.20100000E+01
  1.00800000E+00  1.20100000E+01  1.20100000E+01  1.00800000E+00  1.20100000E+01
  1.00800000E+00  1.00800000E+00  1.00800000E+00  1.20100000E+01  1.20100000E+01
  1.20100000E+01  1.20100000E+01  1.20100000E+01  1.00800000E+00  1.20100000E+01
  1.20100000E+01  1.20100000E+01  1.20100000E+01  1.20100000E+01  1.00800000E+00
  1.00800000E+00  1.20100000E+01  1.00800000E+00  1.20100000E+01  1.20100000E+01
  1.00800000E+00  1.00800000E+00  1.00800000E+00  1.20100000E+01  1.20100000E+01
  1.00800000E+00  1.20100000E+01  1.20100000E+01  1.00800000E+00  1.20100000E+01
  1.20100000E+01  1.00800000E+00  1.20100000E+01  1.20100000E+01  1.00800000E+00
  1.20100000E+01  1.00800000E+00  1.00800000E+00  1.00800000E+00  1.20100000E+01
  1.20100000E+01  1.20100000E+01  1.20100000E+01  1.20100000E+01  1.00800000E+00
  1.20100000E+01  1.20100000E+01  1.20100000E+01  1.20100000E+01  1.20100000E+01
  1.00800000E+00  1.00800000E+00  1.20100000E+01  1.00800000E+00  1.20100000E+01
  1.20100000E+01  1.00800000E+00  1.00800000E+00  1.00800000E+00  1.20100000E+01
  1.20100000E+01  1.00800000E+00  1.20100000E+01  1.20100000E+01  1.00800000E+00
  1.20100000E+01  1.20100000E+01  1.00800000E+00  1.20100000E+01  1.20100000E+01
  1.00800000E+00  1.20100000E+01  1.00800000E+00  1.00800000E+00  1.00800000E+00
  1.20100000E+01  1.20100000E+01  1.20100000E+01  1.20100000E+01  1.20100000E+01
  1.00800000E+00  1.20100000E+01  1.20100000E+01  1.20100000E+01  1.20100000E+01
  1.20100000E+01  1.00800000E+00  1.00800000E+00  1.20100000E+01  1.00800000E+00
  1.20100000E+01  1.20100000E+01  1.00800000E+00  1.00800000E+00  1.00800000E+00
  1.20100000E+01  1.20100000E+01  1.00800000E+00  1.20100000E+01  1.20100000E+01
  1.00800000E+00  1.20100000E+01  1.20100000E+01  1.00800000E+00  1.20100000E+01
  1.20100000E+01  1.00800000E+00  1.20100000E+01  1.00800000E+00  1.00800000E+00
  1.00800000E+00  1.20100000E+01  1.20100000E+01  1.20100000E+01  1.20100000E+01
  1.20100000E+01  1.00800000E+00  1.20100000E+01  1.20100000E+01  1.20100000E+01
  1.20100000E+01  1.20100000E+01  1.00800000E+00  1.00800000E+00  1.20100000E+01
  1.00800000E+00  1.20100000E+01  1.20100000E+01  1.00800000E+00  1.00800000E+00
  1.00800000E+00  1.20100000E+01  1.20100000E+01  1.00800000E+00  1.20100000E+01
  1.20100000E+01  1.00800000E+00  1.20100000E+01  1.20100000E+01  1.00800000E+00
  1.20100000E+01  1.20100000E+01  1.00800000E+00  1.20100000E+01  1.00800000E+00
  1.00800000E+00  1.00800000E+00  1.20100000E+01  1.20100000E+01  1.20100000E+01
  1.20100000E+01  1.20100000E+01  1.00800000E+00  1.20100000E+01  1.20100000E+01
  1.20100000E+01  1.20100000E+01  1.20100000E+01  1.00800000E+00  1.00800000E+00
  1.20100000E+01  1.00800000E+00  1.20100000E+01  1.20100000E+01  1.00800000E+00
  1.00800000E+00  1.00800000E+00  1.20100000E+01  1.20100000E+01  1.00800000E+00
  1.20100000E+01  1.20100000E+01  1.00800000E+00  1.20100000E+01  1.20100000E+01
  1.00800000E+00  1.20100000E+01  1.20100000E+01  1.00800000E+00  1.20100000E+01
  1.00800000E+00  1.00800000E+00  1.00800000E+00  1.20100000E+01  1.20100000E+01
  1.20100000E+01  1.20100000E+01  1.20100000E+01  1.00800000E+00  1.20100000E+01
  1.20100000E+01  1.20100000E+01  1.20100000E+01  1.20100000E+01  1.00800000E+00
  1.00800000E+00  1.20100000E+01  1.00800000E+00  1.20100000E+01  1.20100000E+01
  1.00800000E+00  1.00800000E+00  1.00800000E+00  1.20100000E+01  1.20100000E+01
  1.00800000E+00  1.20100000E+01  1.20100000E+01  1.00800000E+00  1.20100000E+01
  1.20100000E+01  1.00800000E+00  1.20100000E+01  1.20100000E+01  1.00800000E+00
  1.20100000E+01  1.00800000E+00  1.00800000E+00  1.00800000E+00  1.20100000E+01
  1.20100000E+01  1.20100000E+01  1.20100000E+01  1.20100000E+01  1.00800000E+00
  1.20100000E+01  1.20100000E+01  1.20100000E+01  1.20100000E+01  1.20100000E+01
  1.00800000E+00  1.00800000E+00  1.20100000E+01  1.00800000E+00  1.20100000E+01
  1.20100000E+01  1.00800000E+00  1.00800000E+00  1.00800000E+00  1.20100000E+01
  1.20100000E+01  1.00800000E+00  1.20100000E+01  1.20100000E+01  1.00800000E+00
  1.20100000E+01  1.20100000E+01  1.00800000E+00  1.20100000E+01  1.20100000E+01
  1.00800000E+00  1.20100000E+01  1.00800000E+00  1.00800000E+00  1.00800000E+00
  1.20100000E+01  1.20100000E+01  1.20100000E+01  1.20100000E+01  1.20100000E+01
  1.00800000E+00  1.20100000E+01  1.20100000E+01  1.20100000E+01  1.20100000E+01
  1.20100000E+01  1.00800000E+00  1.00800000E+00  1.20100000E+01  1.00800000E+00
  1.20100000E+01  1.20100000E+01  1.00800000E+00  1.00800000E+00  1.00800000E+00
  1.20100000E+01  1.20100000E+01  1.00800000E+00  1.20100000E+01  1.20100000E+01
  1.00800000E+00  1.20100000E+01  1.20100000E+01  1.00800000E+00  1.20100000E+01
  1.20100000E+01  1.00800000E+00  1.20100000E+01  1.00800000E+00  1.00800000E+00
  1.00800000E+00  1.20100000E+01  1.20100000E+01  1.20100000E+01  1.20100000E+01
  1.20100000E+01  1.00800000E+00  1.20100000E+01  1.20100000E+01  1.20100000E+01
  1.20100000E+01  1.20100000E+01  1.00800000E+00  1.00800000E+00  1.20100000E+01
  1.00800000E+00  1.20100000E+01  1.20100000E+01  1.00800000E+00  1.00800000E+00
  1.00800000E+00  1.20100000E+01  1.20100000E+01  1.00800000E+00  1.20100000E+01
  1.20100000E+01  1.00800000E+00  1.20100000E+01  1.20100000E+01  1.00800000E+00
  1.20100000E+01  1.20100000E+01  1.00800000E+00  1.20100000E+01  1.00800000E+00
  1.00800000E+00  1.00800000E+00  1.20100000E+01  1.20100000E+01  1.20100000E+01
  1.20100000E+01  1.20100000E+01  1.00800000E+00  1.20100000E+01  1.20100000E+01
  1.20100000E+01  1.20100000E+01  1.20100000E+01  1.00800000E+00  1.00800000E+00
  1.20100000E+01  1.00800000E+00  1.20100000E+01  1.20100000E+01  1.00800000E+00
  1.00800000E+00  1.00800000E+00  1.20100000E+01  1.20100000E+01  1.00800000E+00
  1.20100000E+01  1.20100000E+01  1.00800000E+00  1.20100000E+01  1.20100000E+01
  1.00800000E+00  1.20100000E+01  1.20100000E+01  1.00800000E+00  1.20100000E+01
  1.00800000E+00  1.00800000E+00  1.00800000E+00  1.20100000E+01  1.20100000E+01
  1.20100000E+01  1.20100000E+01  1.20100000E+01  1.00800000E+00  1.20100000E+01
  1.20100000E+01  1.20100000E+01  1.20100000E+01  1.20100000E+01  1.00800000E+00
  1.00800000E+00  1.20100000E+01  1.00800000E+00  1.20100000E+01  1.20100000E+01
  1.00800000E+00  1.00800000E+00  1.00800000E+00  1.20100000E+01  1.20100000E+01
  1.00800000E+00  1.20100000E+01  1.20100000E+01  1.00800000E+00  1.20100000E+01
  1.20100000E+01  1.00800000E+00  1.20100000E+01  1.20100000E+01  1.00800000E+00
  1.20100000E+01  1.00800000E+00  1.00800000E+00  1.00800000E+00  1.20100000E+01
  1.20100000E+01  1.20100000E+01  1.20100000E+01  1.20100000E+01  1.00800000E+00
  1.20100000E+01  1.20100000E+01  1.20100000E+01  1.20100000E+01  1.20100000E+01
  1.00800000E+00  1.00800000E+00  1.20100000E+01  1.00800000E+00  1.20100000E+01
  1.20100000E+01  1.00800000E+00  1.00800000E+00  1.00800000E+00  1.20100000E+01
  1.20100000E+01  1.00800000E+00  1.20100000E+01  1.20100000E+01  1.00800000E+00
  1.20100000E+01  1.20100000E+01  1.00800000E+00  1.20100000E+01  1.20100000E+01
  1.00800000E+00  1.20100000E+01  1.00800000E+00  1.00800000E+00  1.00800000E+00
  1.20100000E+01  1.20100000E+01  1.20100000E+01  1.20100000E+01  1.20100000E+01
  1.00800000E+00  1.20100000E+01  1.20100000E+01  1.20100000E+01  1.20100000E+01
  1.20100000E+01  1.00800000E+00  1.00800000E+00  1.20100000E+01  1.00800000E+00
  1.20100000E+01  1.20100000E+01  1.00800000E+00  1.00800000E+00  1.00800000E+00
  1.20100000E+01  1.20100000E+01  1.00800000E+00  1.20100000E+01  1.20100000E+01
  1.00800000E+00  1.20100000E+01  1.20100000E+01  1.00800000E+00  1.20100000E+01
  1.20100000E+01  1.00800000E+00  1.20100000E+01  1.00800000E+00  1.00800000E+00
  1.00800000E+00  1.20100000E+01  1.20100000E+01  1.20100000E+01  1.20100000E+01
  1.20100000E+01  1.00800000E+00  1.20100000E+01  1.20100000E+01  1.20100000E+01
  1.20100000E+01  1.20100000E+01  1.00800000E+00  1.00800000E+00  1.20100000E+01
  1.00800000E+00  1.20100000E+01  1.20100000E+01  1.00800000E+00  1.00800000E+00
  1.00800000E+00  1.20100000E+01  1.20100000E+01  1.00800000E+00  1.20100000E+01
  1.20100000E+01  1.00800000E+00  1.20100000E+01  1.20100000E+01  1.00800000E+00
  1.20100000E+01  1.20100000E+01  1.00800000E+00  1.20100000E+01  1.00800000E+00
  1.00800000E+00  1.00800000E+00  1.20100000E+01  1.20100000E+01  1.20100000E+01
  1.20100000E+01  1.20100000E+01  1.00800000E+00  1.20100000E+01  1.20100000E+01
  1.20100000E+01  1.20100000E+01  1.20100000E+01  1.00800000E+00  1.00800000E+00
  1.20100000E+01  1.00800000E+00  1.20100000E+01  1.20100000E+01  1.00800000E+00
  1.00800000E+00  1.00800000E+00  1.20100000E+01  1.20100000E+01  1.00800000E+00
  1.20100000E+01  1.20100000E+01  1.00800000E+00  1.20100000E+01  1.20100000E+01
  1.00800000E+00  1.20100000E+01  1.20100000E+01  1.00800000E+00  1.20100000E+01
  1.00800000E+00  1.00800000E+00  1.00800000E+00  1.20100000E+01  1.20100000E+01
  1.20100000E+01  1.20100000E+01  1.20100000E+01  1.00800000E+00  1.20100000E+01
  1.20100000E+01  1.20100000E+01  1.20100000E+01  1.20100000E+01  1.00800000E+00
  1.00800000E+00  1.20100000E+01  1.00800000E+00  1.20100000E+01  1.20100000E+01
  1.00800000E+00  1.00800000E+00  1.00800000E+00  1.20100000E+01  1.20100000E+01
  1.00800000E+00  1.20100000E+01  1.20100000E+01  1.00800000E+00  1.20100000E+01
  1.20100000E+01  1.00800000E+00  1.20100000E+01  1.20100000E+01  1.00800000E+00
  1.20100000E+01  1.00800000E+00  1.00800000E+00  1.00800000E+00  1.20100000E+01
  1.20100000E+01  1.20100000E+01  1.20100000E+01  1.20100000E+01  1.00800000E+00
  1.20100000E+01  1.20100000E+01  1.20100000E+01  1.20100000E+01  1.20100000E+01
  1.00800000E+00  1.00800000E+00  1.20100000E+01  1.00800000E+00  1.20100000E+01
  1.20100000E+01  1.00800000E+00  1.00800000E+00  1.00800000E+00  1.20100000E+01
  1.20100000E+01  1.00800000E+00  1.20100000E+01  1.20100000E+01  1.00800000E+00
  1.20100000E+01  1.20100000E+01  1.00800000E+00  1.20100000E+01  1.20100000E+01
  1.00800000E+00  1.20100000E+01  1.00800000E+00  1.00800000E+00  1.00800000E+00
  1.20100000E+01  1.20100000E+01  1.20100000E+01  1.20100000E+01  1.20100000E+01
  1.00800000E+00  1.20100000E+01  1.20100000E+01  1.20100000E+01  1.20100000E+01
  1.20100000E+01  1.00800000E+00  1.00800000E+00  1.20100000E+01  1.00800000E+00
  1.20100000E+01  1.20100000E+01  1.00800000E+00  1.00800000E+00  1.00800000E+00
  1.20100000E+01  1.20100000E+01  1.00800000E+00  1.20100000E+01  1.20100000E+01
  1.00800000E+00  1.20100000E+01  1.20100000E+01  1.00800000E+00  1.20100000E+01
  1.20100000E+01  1.00800000E+00  1.20100000E+01  1.00800000E+00  1.00800000E+00
  1.00800000E+00  1.20100000E+01  1.20100000E+01  1.20100000E+01  1.20100000E+01
  1.20100000E+01  1.00800000E+00  1.20100000E+01  1.20100000E+01  1.20100000E+01
  1.20100000E+01  1.20100000E+01  1.00800000E+00  1.00800000E+00  1.20100000E+01
  1.00800000E+00  1.20100000E+01  1.20100000E+01  1.00800000E+00  1.00800000E+00
  1.00800000E+00  1.20100000E+01  1.20100000E+01  1.00800000E+00  1.20100000E+01
  1.20100000E+01  1.00800000E+00  1.20100000E+01  1.20100000E+01  1.00800000E+00
  1.20100000E+01  1.20100000E+01  1.00800000E+00  1.20100000E+01  1.00800000E+00
  1.00800000E+00  1.00800000E+00  1.20100000E+01  1.20100000E+01  1.20100000E+01
  1.20100000E+01  1.20100000E+01  1.00800000E+00  1.20100000E+01  1.20100000E+01
  1.20100000E+01  1.20100000E+01  1.20100000E+01  1.00800000E+00  1.00800000E+00
  1.20100000E+01  1.00800000E+00  1.20100000E+01  1.20100000E+01  1.00800000E+00
  1.00800000E+00  1.00800000E+00  1.20100000E+01  1.20100000E+01  1.00800000E+00
  1.20100000E+01  1.20100000E+01  1.00800000E+00  1.20100000E+01  1.20100000E+01
  1.00800000E+00  1.20100000E+01  1.20100000E+01  1.00800000E+00  1.20100000E+01
  1.00800000E+00  1.00800000E+00  1.00800000E+00  1.20100000E+01  1.20100000E+01
  1.20100000E+01  1.20100000E+01  1.20100000E+01  1.00800000E+00  1.20100000E+01
  1.20100000E+01  1.20100000E+01  1.20100000E+01  1.20100000E+01  1.00800000E+00
  1.00800000E+00  1.20100000E+01  1.00800000E+00  1.20100000E+01  1.20100000E+01
  1.00800000E+00  1.00800000E+00  1.00800000E+00  1.20100000E+01  1.20100000E+01
  1.00800000E+00  1.20100000E+01  1.20100000E+01  1.00800000E+00  1.20100000E+01
  1.20100000E+01  1.00800000E+00  1.20100000E+01  1.20100000E+01  1.00800000E+00
  1.20100000E+01  1.00800000E+00  1.00800000E+00  1.00800000E+00  1.20100000E+01
  1.20100000E+01  1.20100000E+01  1.20100000E+01  1.20100000E+01  1.00800000E+00
  1.20100000E+01  1.20100000E+01  1.20100000E+01  1.20100000E+01  1.20100000E+01
  1.00800000E+00  1.00800000E+00  1.20100000E+01  1.00800000E+00  1.20100000E+01
  1.20100000E+01  1.00800000E+00  1.00800000E+00  1.00800000E+00  1.20100000E+01
  1.20100000E+01  1.00800000E+00  1.20100000E+01  1.20100000E+01  1.00800000E+00
  1.20100000E+01  1.20100000E+01  1.00800000E+00  1.20100000E+01  1.20100000E+01
  1.00800000E+00  1.20100000E+01  1.00800000E+00  1.00800000E+00  1.00800000E+00
  1.20100000E+01  1.20100000E+01  1.20100000E+01  1.20100000E+01  1.20100000E+01
  1.00800000E+00  1.20100000E+01  1.20100000E+01  1.20100000E+01  1.20100000E+01
  1.20100000E+01  1.00800000E+00  1.00800000E+00  1.20100000E+01  1.00800000E+00
  1.20100000E+01  1.20100000E+01  1.00800000E+00  1.00800000E+00  1.00800000E+00
  1.20100000E+01  1.20100000E+01  1.00800000E+00  1.20100000E+01  1.20100000E+01
  1.00800000E+00  1.20100000E+01  1.20100000E+01  1.00800000E+00  1.20100000E+01
  1.20100000E+01  1.00800000E+00  1.20100000E+01  1.00800000E+00  1.00800000E+00
  1.00800000E+00  1.20100000E+01  1.20100000E+01  1.20100000E+01  1.20100000E+01
  1.20100000E+01  1.00800000E+00  1.20100000E+01  1.20100000E+01  1.20100000E+01
  1.20100000E+01  1.20100000E+01  1.00800000E+00  1.00800000E+00  1.20100000E+01
  1.00800000E+00  1.20100000E+01  1.20100000E+01  1.00800000E+00  1.00800000E+00
  1.00800000E+00  1.20100000E+01  1.20100000E+01  1.00800000E+00  1.20100000E+01
  1.20100000E+01  1.00800000E+00  1.20100000E+01  1.20100000E+01  1.00800000E+00
  1.20100000E+01  1.20100000E+01  1.00800000E+00  1.20100000E+01  1.00800000E+00
  1.00800000E+00  1.00800000E+00  1.20100000E+01  1.20100000E+01  1.20100000E+01
  1.20100000E+01  1.20100000E+01  1.00800000E+00  1.20100000E+01  1.20100000E+01
  1.20100000E+01  1.20100000E+01  1.20100000E+01  1.00800000E+00  1.00800000E+00
  1.20100000E+01  1.00800000E+00  1.20100000E+01  1.20100000E+01  1.00800000E+00
  1.00800000E+00  1.00800000E+00  1.20100000E+01  1.20100000E+01  1.00800000E+00
  1.20100000E+01  1.20100000E+01  1.00800000E+00  1.20100000E+01  1.20100000E+01
  1.00800000E+00  1.20100000E+01  1.20100000E+01  1.00800000E+00  1.20100000E+01
  1.00800000E+00  1.00800000E+00  1.00800000E+00  1.20100000E+01  1.20100000E+01
  1.20100000E+01  1.20100000E+01  1.20100000E+01  1.00800000E+00  1.20100000E+01
  1.20100000E+01  1.20100000E+01  1.20100000E+01  1.20100000E+01  1.00800000E+00
  1.00800000E+00  1.20100000E+01  1.00800000E+00  1.20100000E+01  1.20100000E+01
  1.00800000E+00  1.00800000E+00  1.00800000E+00  1.20100000E+01  1.20100000E+01
  1.00800000E+00  1.20100000E+01  1.20100000E+01  1.00800000E+00  1.20100000E+01
  1.20100000E+01  1.00800000E+00  1.20100000E+01  1.20100000E+01  1.00800000E+00
  1.20100000E+01  1.00800000E+00  1.00800000E+00  1.00800000E+00  1.20100000E+01
  1.20100000E+01  1.20100000E+01  1.20100000E+01  1.20100000E+01  1.00800000E+00
  1.20100000E+01  1.20100000E+01  1.20100000E+01  1.20100000E+01  1.20100000E+01
  1.00800000E+00  1.00800000E+00  1.20100000E+01  1.00800000E+00  1.20100000E+01
  1.20100000E+01  1.00800000E+00  1.00800000E+00  1.00800000E+00  1.20100000E+01
  1.20100000E+01  1.00800000E+00  1.20100000E+01  1.20100000E+01  1.00800000E+00
  1.20100000E+01  1.20100000E+01  1.00800000E+00  1.20100000E+01  1.20100000E+01
  1.00800000E+00  1.20100000E+01  1.00800000E+00  1.00800000E+00  1.00800000E+00
  1.20100000E+01  1.20100000E+01  1.20100000E+01  1.20100000E+01  1.20100000E+01
  1.00800000E+00  1.20100000E+01  1.20100000E+01  1.20100000E+01  1.20100000E+01
  1.20100000E+01  1.00800000E+00  1.00800000E+00  1.20100000E+01  1.00800000E+00
  1.20100000E+01  1.20100000E+01  1.00800000E+00  1.00800000E+00  1.00800000E+00
  1.20100000E+01  1.20100000E+01  1.00800000E+00  1.20100000E+01  1.20100000E+01
  1.00800000E+00  1.20100000E+01  1.20100000E+01  1.00800000E+00  1.20100000E+01
  1.20100000E+01  1.00800000E+00  1.20100000E+01  1.00800000E+00  1.00800000E+00
  1.00800000E+00  1.20100000E+01  1.20100000E+01  1.20100000E+01  1.20100000E+01
  1.20100000E+01  1.00800000E+00  1.20100000E+01  1.20100000E+01  1.20100000E+01
  1.20100000E+01  1.20100000E+01  1.00800000E+00  1.00800000E+00  1.20100000E+01
  1.00800000E+00  1.20100000E+01  1.20100000E+01  1.00800000E+00  1.00800000E+00
  1.00800000E+00  1.20100000E+01  1.20100000E+01  1.00800000E+00  1.20100000E+01
  1.20100000E+01  1.00800000E+00  1.20100000E+01  1.20100000E+01  1.00800000E+00
  1.20100000E+01  1.20100000E+01  1.00800000E+00  1.20100000E+01  1.00800000E+00
  1.00800000E+00  1.00800000E+00  1.20100000E+01  1.20100000E+01  1.20100000E+01
  1.20100000E+01  1.20100000E+01  1.00800000E+00  1.20100000E+01  1.20100000E+01
  1.20100000E+01  1.20100000E+01  1.20100000E+01  1.00800000E+00  1.00800000E+00
  1.20100000E+01  1.00800000E+00  1.20100000E+01  1.20100000E+01  1.00800000E+00
  1.00800000E+00  1.00800000E+00  1.20100000E+01  1.20100000E+01  1.00800000E+00
  1.20100000E+01  1.20100000E+01  1.00800000E+00  1.20100000E+01  1.20100000E+01
  1.00800000E+00  1.20100000E+01  1.20100000E+01  1.00800000E+00  1.20100000E+01
  1.00800000E+00  1.00800000E+00  1.00800000E+00  1.20100000E+01  1.20100000E+01
  1.20100000E+01  1.20100000E+01  1.20100000E+01  1.00800000E+00  1.20100000E+01
  1.20100000E+01  1.20100000E+01  1.20100000E+01  1.20100000E+01  1.00800000E+00
  1.00800000E+00  1.20100000E+01  1.00800000E+00  1.20100000E+01  1.20100000E+01
  1.00800000E+00  1.00800000E+00  1.00800000E+00  1.20100000E+01  1.20100000E+01
  1.00800000E+00  1.20100000E+01  1.20100000E+01  1.00800000E+00  1.20100000E+01
  1.20100000E+01  1.00800000E+00  1.20100000E+01  1.20100000E+01  1.00800000E+00
  1.20100000E+01  1.00800000E+00  1.00800000E+00  1.00800000E+00  1.20100000E+01
  1.20100000E+01  1.20100000E+01  1.20100000E+01  1.20100000E+01  1.00800000E+00
  1.20100000E+01  1.20100000E+01  1.20100000E+01  1.20100000E+01  1.20100000E+01
  1.00800000E+00  1.00800000E+00  1.20100000E+01  1.00800000E+00  1.20100000E+01
  1.20100000E+01  1.00800000E+00  1.00800000E+00  1.00800000E+00  1.20100000E+01
  1.20100000E+01  1.00800000E+00  1.20100000E+01  1.20100000E+01  1.00800000E+00
  1.20100000E+01  1.20100000E+01  1.00800000E+00  1.20100000E+01  1.20100000E+01
  1.00800000E+00  1.20100000E+01  1.00800000E+00  1.00800000E+00  1.00800000E+00
  1.20100000E+01  1.20100000E+01  1.20100000E+01  1.20100000E+01  1.20100000E+01
  1.00800000E+00  1.20100000E+01  1.20100000E+01  1.20100000E+01  1.20100000E+01
  1.20100000E+01  1.00800000E+00  1.00800000E+00  1.20100000E+01  1.00800000E+00
  1.20100000E+01  1.20100000E+01  1.00800000E+00  1.00800000E+00  1.00800000E+00
  1.20100000E+01  1.20100000E+01  1.00800000E+00  1.20100000E+01  1.20100000E+01
  1.00800000E+00  1.20100000E+01  1.20100000E+01  1.00800000E+00  1.20100000E+01
  1.20100000E+01  1.00800000E+00  1.20100000E+01  1.00800000E+00  1.00800000E+00
  1.00800000E+00  1.20100000E+01  1.20100000E+01  1.20100000E+01  1.20100000E+01
  1.20100000E+01  1.00800000E+00  1.20100000E+01  1.20100000E+01  1.20100000E+01
  1.20100000E+01  1.20100000E+01  1.00800000E+00  1.00800000E+00  1.20100000E+01
  1.00800000E+00  1.20100000E+01  1.20100000E+01  1.00800000E+00  1.00800000E+00
  1.00800000E+00  1.20100000E+01  1.20100000E+01  1.00800000E+00  1.20100000E+01
  1.20100000E+01  1.00800000E+00  1.20100000E+01  1.20100000E+01  1.00800000E+00
  1.20100000E+01  1.20100000E+01  1.00800000E+00  1.20100000E+01  1.00800000E+00
  1.00800000E+00  1.00800000E+00  1.20100000E+01  1.20100000E+01  1.20100000E+01
  1.20100000E+01  1.20100000E+01  1.00800000E+00  1.20100000E+01  1.20100000E+01
  1.20100000E+01  1.20100000E+01  1.20100000E+01  1.00800000E+00  1.00800000E+00
  1.20100000E+01  1.00800000E+00  1.20100000E+01  1.20100000E+01  1.00800000E+00
  1.00800000E+00  1.00800000E+00  1.20100000E+01  1.20100000E+01  1.00800000E+00
  1.20100000E+01  1.20100000E+01  1.00800000E+00  1.20100000E+01  1.20100000E+01
  1.00800000E+00  1.20100000E+01  1.20100000E+01  1.00800000E+00  1.20100000E+01
  1.00800000E+00  1.00800000E+00  1.00800000E+00  1.20100000E+01  1.20100000E+01
  1.20100000E+01  1.20100000E+01  1.20100000E+01  1.00800000E+00  1.20100000E+01
  1.20100000E+01  1.20100000E+01  1.20100000E+01  1.20100000E+01  1.00800000E+00
  1.00800000E+00  1.20100000E+01  1.00800000E+00  1.20100000E+01  1.20100000E+01
  1.00800000E+00  1.00800000E+00  1.00800000E+00  1.20100000E+01  1.20100000E+01
  1.00800000E+00  1.20100000E+01  1.20100000E+01  1.00800000E+00  1.20100000E+01
  1.20100000E+01  1.00800000E+00  1.20100000E+01  1.20100000E+01  1.00800000E+00
  1.20100000E+01  1.00800000E+00  1.00800000E+00  1.00800000E+00  1.20100000E+01
  1.20100000E+01  1.20100000E+01  1.20100000E+01  1.20100000E+01  1.00800000E+00
  1.20100000E+01  1.20100000E+01  1.20100000E+01  1.20100000E+01  1.20100000E+01
  1.00800000E+00  1.00800000E+00  1.20100000E+01  1.00800000E+00  1.20100000E+01
  1.20100000E+01  1.00800000E+00  1.00800000E+00  1.00800000E+00  1.20100000E+01
  1.20100000E+01  1.00800000E+00  1.20100000E+01  1.20100000E+01  1.00800000E+00
  1.20100000E+01  1.20100000E+01  1.00800000E+00  1.20100000E+01  1.20100000E+01
  1.00800000E+00  1.20100000E+01  1.00800000E+00  1.00800000E+00  1.00800000E+00
  1.20100000E+01  1.20100000E+01  1.20100000E+01  1.20100000E+01  1.20100000E+01
  1.00800000E+00  1.20100000E+01  1.20100000E+01  1.20100000E+01  1.20100000E+01
  1.20100000E+01  1.00800000E+00  1.00800000E+00  1.20100000E+01  1.00800000E+00
  1.20100000E+01  1.20100000E+01  1.00800000E+00  1.00800000E+00  1.00800000E+00
  1.20100000E+01  1.20100000E+01  1.00800000E+00  1.20100000E+01  1.20100000E+01
  1.00800000E+00  1.20100000E+01  1.20100000E+01  1.00800000E+00  1.20100000E+01
  1.20100000E+01  1.00800000E+00  1.20100000E+01  1.00800000E+00  1.00800000E+00
  1.00800000E+00  1.20100000E+01  1.20100000E+01  1.20100000E+01  1.20100000E+01
  1.20100000E+01  1.00800000E+00  1.20100000E+01  1.20100000E+01  1.20100000E+01
  1.20100000E+01  1.20100000E+01  1.00800000E+00  1.00800000E+00  1.20100000E+01
  1.00800000E+00  1.20100000E+01  1.20100000E+01  1.00800000E+00  1.00800000E+00
  1.00800000E+00  1.20100000E+01  1.20100000E+01  1.00800000E+00  1.20100000E+01
  1.20100000E+01  1.00800000E+00  1.20100000E+01  1.20100000E+01  1.00800000E+00
  1.20100000E+01  1.20100000E+01  1.00800000E+00  1.20100000E+01  1.00800000E+00
  1.00800000E+00  1.00800000E+00  1.20100000E+01  1.20100000E+01  1.20100000E+01
  1.20100000E+01  1.20100000E+01  1.00800000E+00  1.20100000E+01  1.20100000E+01
  1.20100000E+01  1.20100000E+01  1.20100000E+01  1.00800000E+00  1.00800000E+00
  1.20100000E+01  1.00800000E+00  1.20100000E+01  1.20100000E+01  1.00800000E+00
  1.00800000E+00  1.00800000E+00  1.20100000E+01  1.20100000E+01  1.00800000E+00
  1.20100000E+01  1.20100000E+01  1.00800000E+00  1.20100000E+01  1.20100000E+01
  1.00800000E+00  1.20100000E+01  1.20100000E+01  1.00800000E+00  1.20100000E+01
  1.00800000E+00  1.00800000E+00  1.00800000E+00  1.20100000E+01  1.20100000E+01
  1.20100000E+01  1.20100000E+01  1.20100000E+01  1.00800000E+00  1.20100000E+01
  1.20100000E+01  1.20100000E+01  1.20100000E+01  1.20100000E+01  1.00800000E+00
  1.00800000E+00  1.20100000E+01  1.00800000E+00  1.20100000E+01  1.20100000E+01
  1.00800000E+00  1.00800000E+00  1.00800000E+00  1.20100000E+01  1.20100000E+01
  1.00800000E+00  1.20100000E+01  1.20100000E+01  1.00800000E+00  1.20100000E+01
  1.20100000E+01  1.00800000E+00  1.20100000E+01  1.20100000E+01  1.00800000E+00
  1.20100000E+01  1.00800000E+00  1.00800000E+00  1.00800000E+00  1.20100000E+01
  1.20100000E+01  1.20100000E+01  1.20100000E+01  1.20100000E+01  1.00800000E+00
  1.20100000E+01  1.20100000E+01  1.20100000E+01  1.20100000E+01  1.20100000E+01
  1.00800000E+00  1.00800000E+00  1.20100000E+01  1.00800000E+00  1.20100000E+01
  1.20100000E+01  1.00800000E+00  1.00800000E+00  1.00800000E+00  1.20100000E+01
  1.20100000E+01  1.00800000E+00  1.20100000E+01  1.20100000E+01  1.00800000E+00
  1.20100000E+01  1.20100000E+01  1.00800000E+00  1.20100000E+01  1.20100000E+01
  1.00800000E+00  1.20100000E+01  1.00800000E+00  1.00800000E+00  1.00800000E+00
  1.20100000E+01  1.20100000E+01  1.20100000E+01  1.20100000E+01  1.20100000E+01
  1.00800000E+00  1.20100000E+01  1.20100000E+01  1.20100000E+01  1.20100000E+01
  1.20100000E+01  1.00800000E+00  1.00800000E+00  1.20100000E+01  1.00800000E+00
  1.20100000E+01  1.20100000E+01  1.00800000E+00  1.00800000E+00  1.00800000E+00
  1.20100000E+01  1.20100000E+01  1.00800000E+00  1.20100000E+01  1.20100000E+01
  1.00800000E+00  1.20100000E+01  1.20100000E+01  1.00800000E+00  1.20100000E+01
  1.20100000E+01  1.00800000E+00  1.20100000E+01  1.00800000E+00  1.00800000E+00
  1.00800000E+00  1.20100000E+01  1.20100000E+01  1.20100000E+01  1.20100000E+01
  1.20100000E+01  1.00800000E+00  1.20100000E+01  1.20100000E+01  1.20100000E+01
  1.20100000E+01  1.20100000E+01  1.00800000E+00  1.00800000E+00  1.20100000E+01
  1.00800000E+00  1.20100000E+01  1.20100000E+01  1.00800000E+00  1.00800000E+00
  1.00800000E+00  1.20100000E+01  1.20100000E+01  1.00800000E+00  1.20100000E+01
  1.20100000E+01  1.00800000E+00  1.20100000E+01  1.20100000E+01  1.00800000E+00
  1.20100000E+01  1.20100000E+01  1.00800000E+00  1.20100000E+01  1.00800000E+00
  1.00800000E+00  1.00800000E+00  1.20100000E+01  1.20100000E+01  1.20100000E+01
  1.20100000E+01  1.20100000E+01  1.00800000E+00  1.20100000E+01  1.20100000E+01
  1.20100000E+01  1.20100000E+01  1.20100000E+01  1.00800000E+00  1.00800000E+00
  1.20100000E+01  1.00800000E+00  1.20100000E+01  1.20100000E+01  1.00800000E+00
  1.00800000E+00  1.00800000E+00  1.20100000E+01  1.20100000E+01  1.00800000E+00
  1.20100000E+01  1.20100000E+01  1.00800000E+00  1.20100000E+01  1.20100000E+01
  1.00800000E+00  1.20100000E+01  1.20100000E+01  1.00800000E+00  1.20100000E+01
  1.00800000E+00  1.00800000E+00  1.00800000E+00  1.20100000E+01  1.20100000E+01
  1.20100000E+01  1.20100000E+01  1.20100000E+01  1.00800000E+00  1.20100000E+01
  1.20100000E+01  1.20100000E+01  1.20100000E+01  1.20100000E+01  1.00800000E+00
  1.00800000E+00  1.20100000E+01  1.00800000E+00  1.20100000E+01  1.20100000E+01
  1.00800000E+00  1.00800000E+00  1.00800000E+00  1.20100000E+01  1.20100000E+01
  1.00800000E+00  1.20100000E+01  1.20100000E+01  1.00800000E+00  1.20100000E+01
  1.20100000E+01  1.00800000E+00  1.20100000E+01  1.20100000E+01  1.00800000E+00
  1.20100000E+01  1.00800000E+00  1.00800000E+00  1.00800000E+00  1.20100000E+01
  1.20100000E+01  1.20100000E+01  1.20100000E+01  1.20100000E+01  1.00800000E+00
  1.20100000E+01  1.20100000E+01  1.20100000E+01  1.20100000E+01  1.20100000E+01
  1.00800000E+00  1.00800000E+00  1.20100000E+01  1.00800000E+00  1.20100000E+01
  1.20100000E+01  1.00800000E+00  1.00800000E+00  1.00800000E+00  1.20100000E+01
  1.20100000E+01  1.00800000E+00  1.20100000E+01  1.20100000E+01  1.00800000E+00
  1.20100000E+01  1.20100000E+01  1.00800000E+00  1.20100000E+01  1.20100000E+01
  1.00800000E+00  1.20100000E+01  1.00800000E+00  1.00800000E+00  1.00800000E+00
  1.20100000E+01  1.20100000E+01  1.20100000E+01  1.20100000E+01  1.20100000E+01
  1.00800000E+00  1.20100000E+01  1.20100000E+01  1.20100000E+01  1.20100000E+01
  1.20100000E+01  1.00800000E+00  1.00800000E+00  1.20100000E+01  1.00800000E+00
  1.20100000E+01  1.20100000E+01  1.00800000E+00  1.00800000E+00  1.00800000E+00
  1.20100000E+01  1.20100000E+01  1.00800000E+00  1.20100000E+01  1.20100000E+01
  1.00800000E+00  1.20100000E+01  1.20100000E+01  1.00800000E+00  1.20100000E+01
  1.20100000E+01  1.00800000E+00  1.20100000E+01  1.00800000E+00  1.00800000E+00
  1.00800000E+00  1.20100000E+01  1.20100000E+01  1.20100000E+01  1.20100000E+01
  1.20100000E+01  1.00800000E+00  1.20100000E+01  1.20100000E+01  1.20100000E+01
  1.20100000E+01  1.20100000E+01  1.00800000E+00  1.00800000E+00  1.20100000E+01
  1.00800000E+00  1.20100000E+01  1.20100000E+01  1.00800000E+00  1.00800000E+00
  1.00800000E+00  1.20100000E+01  1.20100000E+01  1.00800000E+00  1.20100000E+01
  1.20100000E+01  1.00800000E+00  1.20100000E+01  1.20100000E+01  1.00800000E+00
  1.20100000E+01  1.20100000E+01  1.00800000E+00  1.20100000E+01  1.00800000E+00
  1.00800000E+00  1.00800000E+00  1.20100000E+01  1.20100000E+01  1.20100000E+01
  1.20100000E+01  1.20100000E+01  1.00800000E+00  1.20100000E+01  1.20100000E+01
  1.20100000E+01  1.20100000E+01  1.20100000E+01  1.00800000E+00  1.00800000E+00
  1.20100000E+01  1.00800000E+00  1.20100000E+01  1.20100000E+01  1.00800000E+00
  1.00800000E+00  1.00800000E+00  1.20100000E+01  1.20100000E+01  1.00800000E+00
  1.20100000E+01  1.20100000E+01  1.00800000E+00  1.20100000E+01  1.20100000E+01
  1.00800000E+00  1.20100000E+01  1.20100000E+01  1.00800000E+00  1.20100000E+01
  1.00800000E+00  1.00800000E+00  1.00800000E+00  1.20100000E+01  1.20100000E+01
  1.20100000E+01  1.20100000E+01  1.20100000E+01  1.00800000E+00  1.20100000E+01
  1.20100000E+01  1.20100000E+01  1.20100000E+01  1.20100000E+01  1.00800000E+00
  1.00800000E+00  1.20100000E+01  1.00800000E+00  1.20100000E+01  1.20100000E+01
  1.00800000E+00  1.00800000E+00  1.00800000E+00  1.20100000E+01  1.20100000E+01
  1.00800000E+00  1.20100000E+01  1.20100000E+01  1.00800000E+00  1.20100000E+01
  1.20100000E+01  1.00800000E+00  1.20100000E+01  1.20100000E+01  1.00800000E+00
  1.20100000E+01  1.00800000E+00  1.00800000E+00  1.00800000E+00  1.20100000E+01
  1.20100000E+01  1.20100000E+01  1.20100000E+01  1.20100000E+01  1.00800000E+00
  1.20100000E+01  1.20100000E+01  1.20100000E+01  1.20100000E+01  1.20100000E+01
  1.00800000E+00  1.00800000E+00  1.20100000E+01  1.00800000E+00  1.20100000E+01
  1.20100000E+01  1.00800000E+00  1.00800000E+00  1.00800000E+00  1.20100000E+01
  1.20100000E+01  1.00800000E+00  1.20100000E+01  1.20100000E+01  1.00800000E+00
  1.20100000E+01  1.20100000E+01  1.00800000E+00  1.20100000E+01  1.20100000E+01
  1.00800000E+00  1.20100000E+01  1.00800000E+00  1.00800000E+00  1.00800000E+00
  1.20100000E+01  1.20100000E+01  1.20100000E+01  1.20100000E+01  1.20100000E+01
  1.00800000E+00  1.20100000E+01  1.20100000E+01  1.20100000E+01  1.20100000E+01
  1.20100000E+01  1.00800000E+00  1.00800000E+00  1.20100000E+01  1.00800000E+00
  1.20100000E+01  1.20100000E+01  1.00800000E+00  1.00800000E+00  1.00800000E+00
  1.20100000E+01  1.20100000E+01  1.00800000E+00  1.20100000E+01  1.20100000E+01
  1.00800000E+00  1.20100000E+01  1.20100000E+01  1.00800000E+00  1.20100000E+01
  1.20100000E+01  1.00800000E+00  1.20100000E+01  1.00800000E+00  1.00800000E+00
  1.00800000E+00  1.20100000E+01  1.20100000E+01  1.20100000E+01  1.20100000E+01
  1.20100000E+01  1.00800000E+00  1.20100000E+01  1.20100000E+01  1.20100000E+01
  1.20100000E+01  1.20100000E+01  1.00800000E+00  1.00800000E+00  1.20100000E+01
  1.00800000E+00  1.20100000E+01  1.20100000E+01  1.00800000E+00  1.00800000E+00
  1.00800000E+00  1.20100000E+01  1.20100000E+01  1.00800000E+00  1.20100000E+01
  1.20100000E+01  1.00800000E+00  1.20100000E+01  1.20100000E+01  1.00800000E+00
  1.20100000E+01  1.20100000E+01  1.00800000E+00  1.20100000E+01  1.00800000E+00
  1.00800000E+00  1.00800000E+00  1.20100000E+01  1.20100000E+01  1.20100000E+01
  1.20100000E+01  1.20100000E+01  1.00800000E+00  1.20100000E+01  1.20100000E+01
  1.20100000E+01  1.20100000E+01  1.20100000E+01  1.00800000E+00  1.00800000E+00
  1.20100000E+01  1.00800000E+00  1.20100000E+01  1.20100000E+01  1.00800000E+00
  1.00800000E+00  1.00800000E+00  1.20100000E+01  1.20100000E+01  1.00800000E+00
  1.20100000E+01  1.20100000E+01  1.00800000E+00  1.20100000E+01  1.20100000E+01
  1.00800000E+00  1.20100000E+01  1.20100000E+01  1.00800000E+00  1.20100000E+01
  1.00800000E+00  1.00800000E+00  1.00800000E+00  1.20100000E+01  1.20100000E+01
  1.20100000E+01  1.20100000E+01  1.20100000E+01  1.00800000E+00  1.20100000E+01
  1.20100000E+01  1.20100000E+01  1.20100000E+01  1.20100000E+01  1.00800000E+00
  1.00800000E+00  1.20100000E+01  1.00800000E+00  1.20100000E+01  1.20100000E+01
  1.00800000E+00  1.00800000E+00  1.00800000E+00  1.20100000E+01  1.20100000E+01
  1.00800000E+00  1.20100000E+01  1.20100000E+01  1.00800000E+00  1.20100000E+01
  1.20100000E+01  1.00800000E+00  1.20100000E+01  1.20100000E+01  1.00800000E+00
  1.20100000E+01  1.00800000E+00  1.00800000E+00  1.00800000E+00  1.20100000E+01
  1.20100000E+01  1.20100000E+01  1.20100000E+01  1.20100000E+01  1.00800000E+00
  1.20100000E+01  1.20100000E+01  1.20100000E+01  1.20100000E+01  1.20100000E+01
  1.00800000E+00  1.00800000E+00  1.20100000E+01  1.00800000E+00  1.20100000E+01
  1.20100000E+01  1.00800000E+00  1.00800000E+00  1.00800000E+00  1.20100000E+01
  1.20100000E+01  1.00800000E+00  1.20100000E+01  1.20100000E+01  1.00800000E+00
  1.20100000E+01  1.20100000E+01  1.00800000E+00  1.20100000E+01  1.20100000E+01
  1.00800000E+00  1.20100000E+01  1.00800000E+00  1.00800000E+00  1.00800000E+00
  1.20100000E+01  1.20100000E+01  1.20100000E+01  1.20100000E+01  1.20100000E+01
  1.00800000E+00  1.20100000E+01  1.20100000E+01  1.20100000E+01  1.20100000E+01
  1.20100000E+01  1.00800000E+00  1.00800000E+00  1.20100000E+01  1.00800000E+00
  1.20100000E+01  1.20100000E+01  1.00800000E+00  1.00800000E+00  1.00800000E+00
  1.20100000E+01  1.20100000E+01  1.00800000E+00  1.20100000E+01  1.20100000E+01
  1.00800000E+00  1.20100000E+01  1.20100000E+01  1.00800000E+00  1.20100000E+01
  1.20100000E+01  1.00800000E+00  1.20100000E+01  1.00800000E+00  1.00800000E+00
  1.00800000E+00  1.20100000E+01  1.20100000E+01  1.20100000E+01  1.20100000E+01
  1.20100000E+01  1.00800000E+00  1.20100000E+01  1.20100000E+01  1.20100000E+01
  1.20100000E+01  1.20100000E+01  1.00800000E+00  1.00800000E+00  1.20100000E+01
  1.00800000E+00  1.20100000E+01  1.20100000E+01  1.00800000E+00  1.00800000E+00
  1.00800000E+00  1.20100000E+01  1.20100000E+01  1.00800000E+00  1.20100000E+01
  1.20100000E+01  1.00800000E+00  1.20100000E+01  1.20100000E+01  1.00800000E+00
  1.20100000E+01  1.20100000E+01  1.00800000E+00  1.20100000E+01  1.00800000E+00
  1.00800000E+00  1.00800000E+00  1.20100000E+01  1.20100000E+01  1.20100000E+01
  1.20100000E+01  1.20100000E+01  1.00800000E+00  1.20100000E+01  1.20100000E+01
  1.20100000E+01  1.20100000E+01  1.20100000E+01  1.00800000E+00  1.00800000E+00
  1.20100000E+01  1.00800000E+00  1.20100000E+01  1.20100000E+01  1.00800000E+00
  1.00800000E+00  1.00800000E+00  1.20100000E+01  1.20100000E+01  1.00800000E+00
  1.20100000E+01  1.20100000E+01  1.00800000E+00  1.20100000E+01  1.20100000E+01
  1.00800000E+00  1.20100000E+01  1.20100000E+01  1.00800000E+00  1.20100000E+01
  1.00800000E+00  1.00800000E+00  1.00800000E+00  1.20100000E+01  1.20100000E+01
  1.20100000E+01  1.20100000E+01  1.20100000E+01  1.00800000E+00  1.20100000E+01
  1.20100000E+01  1.20100000E+01  1.20100000E+01  1.20100000E+01  1.00800000E+00
  1.00800000E+00  1.20100000E+01  1.00800000E+00  1.20100000E+01  1.20100000E+01
  1.00800000E+00  1.00800000E+00  1.00800000E+00  1.20100000E+01  1.20100000E+01
  1.00800000E+00  1.20100000E+01  1.20100000E+01  1.00800000E+00  1.20100000E+01
  1.20100000E+01  1.00800000E+00  1.20100000E+01  1.20100000E+01  1.00800000E+00
  1.20100000E+01  1.00800000E+00  1.00800000E+00  1.00800000E+00  1.20100000E+01
  1.20100000E+01  1.20100000E+01  1.20100000E+01  1.20100000E+01  1.00800000E+00
  1.20100000E+01  1.20100000E+01  1.20100000E+01  1.20100000E+01  1.20100000E+01
  1.00800000E+00  1.00800000E+00  1.20100000E+01  1.00800000E+00  1.20100000E+01
  1.20100000E+01  1.00800000E+00  1.00800000E+00  1.00800000E+00  1.20100000E+01
  1.20100000E+01  1.00800000E+00  1.20100000E+01  1.20100000E+01  1.00800000E+00
  1.20100000E+01  1.20100000E+01  1.00800000E+00  1.20100000E+01  1.20100000E+01
  1.00800000E+00  1.20100000E+01  1.00800000E+00  1.00800000E+00  1.00800000E+00
  1.20100000E+01  1.20100000E+01  1.20100000E+01  1.20100000E+01  1.20100000E+01
  1.00800000E+00  1.20100000E+01  1.20100000E+01  1.20100000E+01  1.20100000E+01
  1.20100000E+01  1.00800000E+00  1.00800000E+00  1.20100000E+01  1.00800000E+00
  1.20100000E+01  1.20100000E+01  1.00800000E+00  1.00800000E+00  1.00800000E+00
  1.20100000E+01  1.20100000E+01  1.00800000E+00  1.20100000E+01  1.20100000E+01
  1.00800000E+00  1.20100000E+01  1.20100000E+01  1.00800000E+00  1.20100000E+01
  1.20100000E+01  1.00800000E+00  1.20100000E+01  1.00800000E+00  1.00800000E+00
  1.00800000E+00  1.20100000E+01  1.20100000E+01  1.20100000E+01  1.20100000E+01
  1.20100000E+01  1.00800000E+00  1.20100000E+01  1.20100000E+01  1.20100000E+01
  1.20100000E+01  1.20100000E+01  1.00800000E+00  1.00800000E+00  1.20100000E+01
  1.00800000E+00  1.20100000E+01  1.20100000E+01  1.00800000E+00  1.00800000E+00
  1.00800000E+00  1.20100000E+01  1.20100000E+01  1.00800000E+00  1.20100000E+01
  1.20100000E+01  1.00800000E+00  1.20100000E+01  1.20100000E+01  1.00800000E+00
  1.20100000E+01  1.20100000E+01  1.00800000E+00  1.20100000E+01  1.00800000E+00
  1.00800000E+00  1.00800000E+00  1.20100000E+01  1.20100000E+01  1.20100000E+01
  1.20100000E+01  1.20100000E+01  1.00800000E+00  1.20100000E+01  1.20100000E+01
  1.20100000E+01  1.20100000E+01  1.20100000E+01  1.00800000E+00  1.00800000E+00
  1.20100000E+01  1.00800000E+00  1.20100000E+01  1.20100000E+01  1.00800000E+00
  1.00800000E+00  1.00800000E+00  1.20100000E+01  1.20100000E+01  1.00800000E+00
  1.20100000E+01  1.20100000E+01  1.00800000E+00  1.20100000E+01  1.20100000E+01
  1.00800000E+00  1.20100000E+01  1.20100000E+01  1.00800000E+00  1.20100000E+01
  1.00800000E+00  1.00800000E+00  1.00800000E+00  1.20100000E+01  1.20100000E+01
  1.20100000E+01  1.20100000E+01  1.20100000E+01  1.00800000E+00  1.20100000E+01
  1.20100000E+01  1.20100000E+01  1.20100000E+01  1.20100000E+01  1.00800000E+00
  1.00800000E+00  1.20100000E+01  1.00800000E+00  1.20100000E+01  1.20100000E+01
  1.00800000E+00  1.00800000E+00  1.00800000E+00  1.20100000E+01  1.20100000E+01
  1.00800000E+00  1.20100000E+01  1.20100000E+01  1.00800000E+00  1.20100000E+01
  1.20100000E+01  1.00800000E+00  1.20100000E+01  1.20100000E+01  1.00800000E+00
  1.20100000E+01  1.00800000E+00  1.00800000E+00  1.00800000E+00  1.20100000E+01
  1.20100000E+01  1.20100000E+01  1.20100000E+01  1.20100000E+01  1.00800000E+00
  1.20100000E+01  1.20100000E+01  1.20100000E+01  1.20100000E+01  1.20100000E+01
  1.00800000E+00  1.00800000E+00  1.20100000E+01  1.00800000E+00  1.20100000E+01
  1.20100000E+01  1.00800000E+00  1.00800000E+00  1.00800000E+00  1.20100000E+01
  1.20100000E+01  1.00800000E+00  1.20100000E+01  1.20100000E+01  1.00800000E+00
  1.20100000E+01  1.20100000E+01  1.00800000E+00  1.20100000E+01  1.20100000E+01
  1.00800000E+00  1.20100000E+01  1.00800000E+00  1.00800000E+00  1.00800000E+00
  1.20100000E+01  1.20100000E+01  1.20100000E+01  1.20100000E+01  1.20100000E+01
  1.00800000E+00  1.20100000E+01  1.20100000E+01  1.20100000E+01  1.20100000E+01
  1.20100000E+01  1.00800000E+00  1.00800000E+00  1.20100000E+01  1.00800000E+00
  1.20100000E+01  1.20100000E+01  1.00800000E+00  1.00800000E+00  1.00800000E+00
  1.20100000E+01  1.20100000E+01  1.00800000E+00  1.20100000E+01  1.20100000E+01
  1.00800000E+00  1.20100000E+01  1.20100000E+01  1.00800000E+00  1.20100000E+01
  1.20100000E+01  1.00800000E+00  1.20100000E+01  1.00800000E+00  1.00800000E+00
  1.00800000E+00  1.20100000E+01  1.20100000E+01  1.20100000E+01  1.20100000E+01
  1.20100000E+01  1.00800000E+00  1.20100000E+01  1.20100000E+01  1.20100000E+01
  1.20100000E+01  1.20100000E+01  1.00800000E+00  1.00800000E+00  1.20100000E+01
  1.00800000E+00  1.20100000E+01  1.20100000E+01  1.00800000E+00  1.00800000E+00
  1.00800000E+00  1.20100000E+01  1.20100000E+01  1.00800000E+00  1.20100000E+01
  1.20100000E+01  1.00800000E+00  1.20100000E+01  1.20100000E+01  1.00800000E+00
  1.20100000E+01  1.20100000E+01  1.00800000E+00  1.20100000E+01  1.00800000E+00
  1.00800000E+00  1.00800000E+00  1.20100000E+01  1.20100000E+01  1.20100000E+01
  1.20100000E+01  1.20100000E+01  1.00800000E+00  1.20100000E+01  1.20100000E+01
  1.20100000E+01  1.20100000E+01  1.20100000E+01  1.00800000E+00  1.00800000E+00
  1.20100000E+01  1.00800000E+00  1.20100000E+01  1.20100000E+01  1.00800000E+00
  1.00800000E+00  1.00800000E+00  1.20100000E+01  1.20100000E+01  1.00800000E+00
  1.20100000E+01  1.20100000E+01  1.00800000E+00  1.20100000E+01  1.20100000E+01
  1.00800000E+00  1.20100000E+01  1.20100000E+01  1.00800000E+00  1.20100000E+01
  1.00800000E+00  1.00800000E+00  1.00800000E+00  1.20100000E+01  1.20100000E+01
  1.20100000E+01  1.20100000E+01  1.20100000E+01  1.00800000E+00  1.20100000E+01
  1.20100000E+01  1.20100000E+01  1.20100000E+01  1.20100000E+01  1.00800000E+00
  1.00800000E+00  1.20100000E+01  1.00800000E+00  1.20100000E+01  1.20100000E+01
  1.00800000E+00  1.00800000E+00  1.00800000E+00  1.20100000E+01  1.20100000E+01
  1.00800000E+00  1.20100000E+01  1.20100000E+01  1.00800000E+00  1.20100000E+01
  1.20100000E+01  1.00800000E+00  1.20100000E+01  1.20100000E+01  1.00800000E+00
  1.20100000E+01  1.00800000E+00  1.00800000E+00  1.00800000E+00  1.20100000E+01
  1.20100000E+01  1.20100000E+01  1.20100000E+01  1.20100000E+01  1.00800000E+00
  1.20100000E+01  1.20100000E+01  1.20100000E+01  1.20100000E+01  1.20100000E+01
  1.00800000E+00  1.00800000E+00  1.20100000E+01  1.00800000E+00  1.20100000E+01
  1.20100000E+01  1.00800000E+00  1.00800000E+00  1.00800000E+00  1.20100000E+01
  1.20100000E+01  1.00800000E+00  1.20100000E+01  1.20100000E+01  1.00800000E+00
  1.20100000E+01  1.20100000E+01  1.00800000E+00  1.20100000E+01  1.20100000E+01
  1.00800000E+00  1.20100000E+01  1.00800000E+00  1.00800000E+00  1.00800000E+00
  1.20100000E+01  1.20100000E+01  1.20100000E+01  1.20100000E+01  1.20100000E+01
  1.00800000E+00  1.20100000E+01  1.20100000E+01  1.20100000E+01  1.20100000E+01
  1.20100000E+01  1.00800000E+00  1.00800000E+00  1.20100000E+01  1.00800000E+00
  1.20100000E+01  1.20100000E+01  1.00800000E+00  1.00800000E+00  1.00800000E+00
  1.20100000E+01  1.20100000E+01  1.00800000E+00  1.20100000E+01  1.20100000E+01
  1.00800000E+00  1.20100000E+01  1.20100000E+01  1.00800000E+00  1.20100000E+01
  1.20100000E+01  1.00800000E+00  1.20100000E+01  1.00800000E+00  1.00800000E+00
  1.00800000E+00  1.20100000E+01  1.20100000E+01  1.20100000E+01  1.20100000E+01
  1.20100000E+01  1.00800000E+00  1.20100000E+01  1.20100000E+01  1.20100000E+01
  1.20100000E+01  1.20100000E+01  1.00800000E+00  1.00800000E+00  1.20100000E+01
  1.00800000E+00  1.20100000E+01  1.20100000E+01  1.00800000E+00  1.00800000E+00
  1.00800000E+00  1.20100000E+01  1.20100000E+01  1.00800000E+00  1.20100000E+01
  1.20100000E+01  1.00800000E+00  1.20100000E+01  1.20100000E+01  1.00800000E+00
  1.20100000E+01  1.20100000E+01  1.00800000E+00  1.20100000E+01  1.00800000E+00
  1.00800000E+00  1.00800000E+00  1.20100000E+01  1.20100000E+01  1.20100000E+01
  1.20100000E+01  1.20100000E+01  1.00800000E+00  1.20100000E+01  1.20100000E+01
  1.20100000E+01  1.20100000E+01  1.20100000E+01  1.00800000E+00  1.00800000E+00
  1.20100000E+01  1.00800000E+00  1.20100000E+01  1.20100000E+01  1.00800000E+00
  1.00800000E+00  1.00800000E+00  1.20100000E+01  1.20100000E+01  1.00800000E+00
  1.20100000E+01  1.20100000E+01  1.00800000E+00  1.20100000E+01  1.20100000E+01
  1.00800000E+00  1.20100000E+01  1.20100000E+01  1.00800000E+00  1.20100000E+01
  1.00800000E+00  1.00800000E+00  1.00800000E+00  1.20100000E+01  1.20100000E+01
  1.20100000E+01  1.20100000E+01  1.20100000E+01  1.00800000E+00  1.20100000E+01
  1.20100000E+01  1.20100000E+01  1.20100000E+01  1.20100000E+01  1.00800000E+00
  1.00800000E+00  1.20100000E+01  1.00800000E+00  1.20100000E+01  1.20100000E+01
  1.00800000E+00  1.00800000E+00  1.00800000E+00  1.20100000E+01  1.20100000E+01
  1.00800000E+00  1.20100000E+01  1.20100000E+01  1.00800000E+00  1.20100000E+01
  1.20100000E+01  1.00800000E+00  1.20100000E+01  1.20100000E+01  1.00800000E+00
  1.20100000E+01  1.00800000E+00  1.00800000E+00  1.00800000E+00  1.20100000E+01
  1.20100000E+01  1.20100000E+01  1.20100000E+01  1.20100000E+01  1.00800000E+00
  1.20100000E+01  1.20100000E+01  1.20100000E+01  1.20100000E+01  1.20100000E+01
  1.00800000E+00  1.00800000E+00  1.20100000E+01  1.00800000E+00  1.20100000E+01
  1.20100000E+01  1.00800000E+00  1.00800000E+00  1.00800000E+00  1.20100000E+01
  1.20100000E+01  1.00800000E+00  1.20100000E+01  1.20100000E+01  1.00800000E+00
  1.20100000E+01  1.20100000E+01  1.00800000E+00  1.20100000E+01  1.20100000E+01
  1.00800000E+00  1.20100000E+01  1.00800000E+00  1.00800000E+00  1.00800000E+00
  1.20100000E+01  1.20100000E+01  1.20100000E+01  1.20100000E+01  1.20100000E+01
  1.00800000E+00  1.20100000E+01  1.20100000E+01  1.20100000E+01  1.20100000E+01
  1.20100000E+01  1.00800000E+00  1.00800000E+00  1.20100000E+01  1.00800000E+00
  1.20100000E+01  1.20100000E+01  1.00800000E+00  1.00800000E+00  1.00800000E+00
  1.20100000E+01  1.20100000E+01  1.00800000E+00  1.20100000E+01  1.20100000E+01
  1.00800000E+00  1.20100000E+01  1.20100000E+01  1.00800000E+00  1.20100000E+01
  1.20100000E+01  1.00800000E+00  1.20100000E+01  1.00800000E+00  1.00800000E+00
  1.00800000E+00  1.20100000E+01  1.20100000E+01  1.20100000E+01  1.20100000E+01
  1.20100000E+01  1.00800000E+00  1.20100000E+01  1.20100000E+01  1.20100000E+01
  1.20100000E+01  1.20100000E+01  1.00800000E+00  1.00800000E+00  1.20100000E+01
  1.00800000E+00  1.20100000E+01  1.20100000E+01  1.00800000E+00  1.00800000E+00
  1.00800000E+00  1.20100000E+01  1.20100000E+01  1.00800000E+00  1.20100000E+01
  1.20100000E+01  1.00800000E+00  1.20100000E+01  1.20100000E+01  1.00800000E+00
  1.20100000E+01  1.20100000E+01  1.00800000E+00  1.20100000E+01  1.00800000E+00
  1.00800000E+00  1.00800000E+00  1.20100000E+01  1.20100000E+01  1.20100000E+01
  1.20100000E+01  1.20100000E+01  1.00800000E+00  1.20100000E+01  1.20100000E+01
  1.20100000E+01  1.20100000E+01  1.20100000E+01  1.00800000E+00  1.00800000E+00
  1.20100000E+01  1.00800000E+00  1.20100000E+01  1.20100000E+01  1.00800000E+00
  1.00800000E+00  1.00800000E+00  1.20100000E+01  1.20100000E+01  1.00800000E+00
  1.20100000E+01  1.20100000E+01  1.00800000E+00  1.20100000E+01  1.20100000E+01
  1.00800000E+00  1.20100000E+01  1.20100000E+01  1.00800000E+00  1.20100000E+01
  1.00800000E+00  1.00800000E+00  1.00800000E+00  1.20100000E+01  1.20100000E+01
  1.20100000E+01  1.20100000E+01  1.20100000E+01  1.00800000E+00  1.20100000E+01
  1.20100000E+01  1.20100000E+01  1.20100000E+01  1.20100000E+01  1.00800000E+00
  1.00800000E+00  1.20100000E+01  1.00800000E+00  1.20100000E+01  1.20100000E+01
  1.00800000E+00  1.00800000E+00  1.00800000E+00  1.20100000E+01  1.20100000E+01
  1.00800000E+00  1.20100000E+01  1.20100000E+01  1.00800000E+00  1.20100000E+01
  1.20100000E+01  1.00800000E+00  1.20100000E+01  1.20100000E+01  1.00800000E+00
  1.20100000E+01  1.00800000E+00  1.00800000E+00  1.00800000E+00  1.20100000E+01
  1.20100000E+01  1.20100000E+01  1.20100000E+01  1.20100000E+01  1.00800000E+00
  1.20100000E+01  1.20100000E+01  1.20100000E+01  1.20100000E+01  1.20100000E+01
  1.00800000E+00  1.00800000E+00  1.20100000E+01  1.00800000E+00  1.20100000E+01
  1.20100000E+01  1.00800000E+00  1.00800000E+00  1.00800000E+00  1.20100000E+01
  1.20100000E+01  1.00800000E+00  1.20100000E+01  1.20100000E+01  1.00800000E+00
  1.20100000E+01  1.20100000E+01  1.00800000E+00  1.20100000E+01  1.20100000E+01
  1.00800000E+00  1.20100000E+01  1.00800000E+00  1.00800000E+00  1.00800000E+00
  1.20100000E+01  1.20100000E+01  1.20100000E+01  1.20100000E+01  1.20100000E+01
  1.00800000E+00  1.20100000E+01  1.20100000E+01  1.20100000E+01  1.20100000E+01
  1.20100000E+01  1.00800000E+00  1.00800000E+00  1.20100000E+01  1.00800000E+00
  1.20100000E+01  1.20100000E+01  1.00800000E+00  1.00800000E+00  1.00800000E+00
  1.20100000E+01  1.20100000E+01  1.00800000E+00  1.20100000E+01  1.20100000E+01
  1.00800000E+00  1.20100000E+01  1.20100000E+01  1.00800000E+00  1.20100000E+01
  1.20100000E+01  1.00800000E+00  1.20100000E+01  1.00800000E+00  1.00800000E+00
  1.00800000E+00  1.20100000E+01  1.20100000E+01  1.20100000E+01  1.20100000E+01
  1.20100000E+01  1.00800000E+00  1.20100000E+01  1.20100000E+01  1.20100000E+01
  1.20100000E+01  1.20100000E+01  1.00800000E+00  1.00800000E+00  1.20100000E+01
  1.00800000E+00  1.20100000E+01  1.20100000E+01  1.00800000E+00  1.00800000E+00
  1.00800000E+00  1.20100000E+01  1.20100000E+01  1.00800000E+00  1.20100000E+01
  1.20100000E+01  1.00800000E+00  1.20100000E+01  1.20100000E+01  1.00800000E+00
  1.20100000E+01  1.20100000E+01  1.00800000E+00  1.20100000E+01  1.00800000E+00
  1.00800000E+00  1.00800000E+00  1.20100000E+01  1.20100000E+01  1.20100000E+01
  1.20100000E+01  1.20100000E+01  1.00800000E+00  1.20100000E+01  1.20100000E+01
  1.20100000E+01  1.20100000E+01  1.20100000E+01  1.00800000E+00  1.00800000E+00
  1.20100000E+01  1.00800000E+00  1.20100000E+01  1.20100000E+01  1.00800000E+00
  1.00800000E+00  1.00800000E+00  1.20100000E+01  1.20100000E+01  1.00800000E+00
  1.20100000E+01  1.20100000E+01  1.00800000E+00  1.20100000E+01  1.20100000E+01
  1.00800000E+00  1.20100000E+01  1.20100000E+01  1.00800000E+00  1.20100000E+01
  1.00800000E+00  1.00800000E+00  1.00800000E+00  1.20100000E+01  1.20100000E+01
  1.20100000E+01  1.20100000E+01  1.20100000E+01  1.00800000E+00  1.20100000E+01
  1.20100000E+01  1.20100000E+01  1.20100000E+01  1.20100000E+01  1.00800000E+00
  1.00800000E+00  1.20100000E+01  1.00800000E+00  1.20100000E+01  1.20100000E+01
  1.00800000E+00  1.00800000E+00  1.00800000E+00  1.20100000E+01  1.20100000E+01
  1.00800000E+00  1.20100000E+01  1.20100000E+01  1.00800000E+00  1.20100000E+01
  1.20100000E+01  1.00800000E+00  1.20100000E+01  1.20100000E+01  1.00800000E+00
  1.20100000E+01  1.00800000E+00  1.00800000E+00  1.00800000E+00  1.20100000E+01
  1.20100000E+01  1.20100000E+01  1.20100000E+01  1.20100000E+01  1.00800000E+00
  1.20100000E+01  1.20100000E+01  1.20100000E+01  1.20100000E+01  1.20100000E+01
  1.00800000E+00  1.00800000E+00  1.20100000E+01  1.00800000E+00  1.20100000E+01
  1.20100000E+01  1.00800000E+00  1.00800000E+00  1.00800000E+00  1.20100000E+01
  1.20100000E+01  1.00800000E+00  1.20100000E+01  1.20100000E+01  1.00800000E+00
  1.20100000E+01  1.20100000E+01  1.00800000E+00  1.20100000E+01  1.20100000E+01
  1.00800000E+00  1.20100000E+01  1.00800000E+00  1.00800000E+00  1.00800000E+00
  1.20100000E+01  1.20100000E+01  1.20100000E+01  1.20100000E+01  1.20100000E+01
  1.00800000E+00  1.20100000E+01  1.20100000E+01  1.20100000E+01  1.20100000E+01
  1.20100000E+01  1.00800000E+00  1.00800000E+00  1.20100000E+01  1.00800000E+00
  1.20100000E+01  1.20100000E+01  1.00800000E+00  1.00800000E+00  1.00800000E+00
  1.20100000E+01  1.20100000E+01  1.00800000E+00  1.20100000E+01  1.20100000E+01
  1.00800000E+00  1.20100000E+01  1.20100000E+01  1.00800000E+00  1.20100000E+01
  1.20100000E+01  1.00800000E+00  1.20100000E+01  1.00800000E+00  1.00800000E+00
  1.00800000E+00  1.20100000E+01  1.20100000E+01  1.20100000E+01  1.20100000E+01
  1.20100000E+01  1.00800000E+00  1.20100000E+01  1.20100000E+01  1.20100000E+01
  1.20100000E+01  1.20100000E+01  1.00800000E+00  1.00800000E+00  1.20100000E+01
  1.00800000E+00  1.20100000E+01  1.20100000E+01  1.00800000E+00  1.00800000E+00
  1.00800000E+00  1.20100000E+01  1.20100000E+01  1.00800000E+00  1.20100000E+01
  1.20100000E+01  1.00800000E+00  1.20100000E+01  1.20100000E+01  1.00800000E+00
  1.20100000E+01  1.20100000E+01  1.00800000E+00  1.20100000E+01  1.00800000E+00
  1.00800000E+00  1.00800000E+00  1.20100000E+01  1.20100000E+01  1.20100000E+01
  1.20100000E+01  1.20100000E+01  1.00800000E+00  1.20100000E+01  1.20100000E+01
  1.20100000E+01  1.20100000E+01  1.20100000E+01  1.00800000E+00  1.00800000E+00
  1.20100000E+01  1.00800000E+00  1.20100000E+01  1.20100000E+01  1.00800000E+00
  1.00800000E+00  1.00800000E+00  1.20100000E+01  1.20100000E+01  1.00800000E+00
  1.20100000E+01  1.20100000E+01  1.00800000E+00  1.20100000E+01  1.20100000E+01
  1.00800000E+00  1.20100000E+01  1.20100000E+01  1.00800000E+00  1.20100000E+01
  1.00800000E+00  1.00800000E+00  1.00800000E+00  1.20100000E+01  1.20100000E+01
  1.20100000E+01  1.20100000E+01  1.20100000E+01  1.00800000E+00  1.20100000E+01
  1.20100000E+01  1.20100000E+01  1.20100000E+01  1.20100000E+01  1.00800000E+00
  1.00800000E+00  1.20100000E+01  1.00800000E+00  1.20100000E+01  1.20100000E+01
  1.00800000E+00  1.00800000E+00  1.00800000E+00  1.20100000E+01  1.20100000E+01
  1.00800000E+00  1.20100000E+01  1.20100000E+01  1.00800000E+00  1.20100000E+01
  1.20100000E+01  1.00800000E+00  1.20100000E+01  1.20100000E+01  1.00800000E+00
  1.20100000E+01  1.00800000E+00  1.00800000E+00  1.00800000E+00  1.20100000E+01
  1.20100000E+01  1.20100000E+01  1.20100000E+01  1.20100000E+01  1.00800000E+00
  1.20100000E+01  1.20100000E+01  1.20100000E+01  1.20100000E+01  1.20100000E+01
  1.00800000E+00  1.00800000E+00  1.20100000E+01  1.00800000E+00  1.20100000E+01
  1.20100000E+01  1.00800000E+00  1.00800000E+00  1.00800000E+00  1.20100000E+01
  1.20100000E+01  1.00800000E+00  1.20100000E+01  1.20100000E+01  1.00800000E+00
  1.20100000E+01  1.20100000E+01  1.00800000E+00  1.20100000E+01  1.20100000E+01
  1.00800000E+00  1.20100000E+01  1.00800000E+00  1.00800000E+00  1.00800000E+00
  1.20100000E+01  1.20100000E+01  1.20100000E+01  1.20100000E+01  1.20100000E+01
  1.00800000E+00  1.20100000E+01  1.20100000E+01  1.20100000E+01  1.20100000E+01
  1.20100000E+01  1.00800000E+00  1.00800000E+00  1.20100000E+01  1.00800000E+00
  1.20100000E+01  1.20100000E+01  1.00800000E+00  1.00800000E+00  1.00800000E+00
  1.20100000E+01  1.20100000E+01  1.00800000E+00  1.20100000E+01  1.20100000E+01
  1.00800000E+00  1.20100000E+01  1.20100000E+01  1.00800000E+00  1.20100000E+01
  1.20100000E+01  1.00800000E+00  1.20100000E+01  1.00800000E+00  1.00800000E+00
  1.00800000E+00  1.20100000E+01  1.20100000E+01  1.20100000E+01  1.20100000E+01
  1.20100000E+01  1.00800000E+00  1.20100000E+01  1.20100000E+01  1.20100000E+01
  1.20100000E+01  1.20100000E+01  1.00800000E+00  1.00800000E+00  1.20100000E+01
  1.00800000E+00  1.20100000E+01  1.20100000E+01  1.00800000E+00  1.00800000E+00
  1.00800000E+00  1.20100000E+01  1.20100000E+01  1.00800000E+00  1.20100000E+01
  1.20100000E+01  1.00800000E+00  1.20100000E+01  1.20100000E+01  1.00800000E+00
  1.20100000E+01  1.20100000E+01  1.00800000E+00  1.20100000E+01  1.00800000E+00
  1.00800000E+00  1.00800000E+00  1.20100000E+01  1.20100000E+01  1.20100000E+01
  1.20100000E+01  1.20100000E+01  1.00800000E+00  1.20100000E+01  1.20100000E+01
  1.20100000E+01  1.20100000E+01  1.20100000E+01  1.00800000E+00  1.00800000E+00
  1.20100000E+01  1.00800000E+00  1.20100000E+01  1.20100000E+01  1.00800000E+00
  1.00800000E+00  1.00800000E+00  1.20100000E+01  1.20100000E+01  1.00800000E+00
  1.20100000E+01  1.20100000E+01  1.00800000E+00  1.20100000E+01  1.20100000E+01
  1.00800000E+00  1.20100000E+01  1.20100000E+01  1.00800000E+00  1.20100000E+01
  1.00800000E+00  1.00800000E+00  1.00800000E+00  1.20100000E+01  1.20100000E+01
  1.20100000E+01  1.20100000E+01  1.20100000E+01  1.00800000E+00  1.20100000E+01
  1.20100000E+01  1.20100000E+01  1.20100000E+01  1.20100000E+01  1.00800000E+00
  1.00800000E+00  1.20100000E+01  1.00800000E+00  1.20100000E+01  1.20100000E+01
  1.00800000E+00  1.00800000E+00  1.00800000E+00  1.20100000E+01  1.20100000E+01
  1.00800000E+00  1.20100000E+01  1.20100000E+01  1.00800000E+00  1.20100000E+01
  1.20100000E+01  1.00800000E+00  1.20100000E+01  1.20100000E+01  1.00800000E+00
  1.20100000E+01  1.00800000E+00  1.00800000E+00  1.00800000E+00  1.20100000E+01
  1.20100000E+01  1.20100000E+01  1.20100000E+01  1.20100000E+01  1.00800000E+00
  1.20100000E+01  1.20100000E+01  1.20100000E+01  1.20100000E+01  1.20100000E+01
  1.00800000E+00  1.00800000E+00  1.20100000E+01  1.00800000E+00  1.20100000E+01
  1.20100000E+01  1.00800000E+00  1.00800000E+00  1.00800000E+00  1.20100000E+01
  1.20100000E+01  1.00800000E+00  1.20100000E+01  1.20100000E+01  1.00800000E+00
  1.20100000E+01  1.20100000E+01  1.00800000E+00  1.20100000E+01  1.20100000E+01
  1.00800000E+00  1.20100000E+01  1.00800000E+00  1.00800000E+00  1.00800000E+00
  1.20100000E+01  1.20100000E+01  1.20100000E+01  1.20100000E+01  1.20100000E+01
  1.00800000E+00  1.20100000E+01  1.20100000E+01  1.20100000E+01  1.20100000E+01
  1.20100000E+01  1.00800000E+00  1.00800000E+00  1.20100000E+01  1.00800000E+00
  1.20100000E+01  1.20100000E+01  1.00800000E+00  1.00800000E+00  1.00800000E+00
  1.20100000E+01  1.20100000E+01  1.00800000E+00  1.20100000E+01  1.20100000E+01
  1.00800000E+00  1.20100000E+01  1.20100000E+01  1.00800000E+00  1.20100000E+01
  1.20100000E+01  1.00800000E+00  1.20100000E+01  1.00800000E+00  1.00800000E+00
  1.00800000E+00  1.20100000E+01  1.20100000E+01  1.20100000E+01  1.20100000E+01
  1.20100000E+01  1.00800000E+00  1.20100000E+01  1.20100000E+01  1.20100000E+01
  1.20100000E+01  1.20100000E+01  1.00800000E+00  1.00800000E+00  1.20100000E+01
  1.00800000E+00  1.20100000E+01  1.20100000E+01  1.00800000E+00  1.00800000E+00
  1.00800000E+00  1.20100000E+01  1.20100000E+01  1.00800000E+00  1.20100000E+01
  1.20100000E+01  1.00800000E+00  1.20100000E+01  1.20100000E+01  1.00800000E+00
  1.20100000E+01  1.20100000E+01  1.00800000E+00  1.20100000E+01  1.00800000E+00
  1.00800000E+00  1.00800000E+00  1.20100000E+01  1.20100000E+01  1.20100000E+01
  1.20100000E+01  1.20100000E+01  1.00800000E+00  1.20100000E+01  1.20100000E+01
  1.20100000E+01  1.20100000E+01  1.20100000E+01  1.00800000E+00  1.00800000E+00
  1.20100000E+01  1.00800000E+00  1.20100000E+01  1.20100000E+01  1.00800000E+00
  1.00800000E+00  1.00800000E+00  1.20100000E+01  1.20100000E+01  1.00800000E+00
  1.20100000E+01  1.20100000E+01  1.00800000E+00  1.20100000E+01  1.20100000E+01
  1.00800000E+00  1.20100000E+01  1.20100000E+01  1.00800000E+00  1.20100000E+01
  1.00800000E+00  1.00800000E+00  1.00800000E+00  1.20100000E+01  1.20100000E+01
  1.20100000E+01  1.20100000E+01  1.20100000E+01  1.00800000E+00  1.20100000E+01
  1.20100000E+01  1.20100000E+01  1.20100000E+01  1.20100000E+01  1.00800000E+00
  1.00800000E+00  1.20100000E+01  1.00800000E+00  1.20100000E+01  1.20100000E+01
  1.00800000E+00  1.00800000E+00  1.00800000E+00  1.20100000E+01  1.20100000E+01
  1.00800000E+00  1.20100000E+01  1.20100000E+01  1.00800000E+00  1.20100000E+01
  1.20100000E+01  1.00800000E+00  1.20100000E+01  1.20100000E+01  1.00800000E+00
  1.20100000E+01  1.00800000E+00  1.00800000E+00  1.00800000E+00  1.20100000E+01
  1.20100000E+01  1.20100000E+01  1.20100000E+01  1.20100000E+01  1.00800000E+00
  1.20100000E+01  1.20100000E+01  1.20100000E+01  1.20100000E+01  1.20100000E+01
  1.00800000E+00  1.00800000E+00  1.20100000E+01  1.00800000E+00  1.20100000E+01
  1.20100000E+01  1.00800000E+00  1.00800000E+00  1.00800000E+00  1.20100000E+01
  1.20100000E+01  1.00800000E+00  1.20100000E+01  1.20100000E+01  1.00800000E+00
  1.20100000E+01  1.20100000E+01  1.00800000E+00  1.20100000E+01  1.20100000E+01
  1.00800000E+00  1.20100000E+01  1.00800000E+00  1.00800000E+00  1.00800000E+00
  1.20100000E+01  1.20100000E+01  1.20100000E+01  1.20100000E+01  1.20100000E+01
  1.00800000E+00  1.20100000E+01  1.20100000E+01  1.20100000E+01  1.20100000E+01
  1.20100000E+01  1.00800000E+00  1.00800000E+00  1.20100000E+01  1.00800000E+00
  1.20100000E+01  1.20100000E+01  1.00800000E+00  1.00800000E+00  1.00800000E+00
  1.20100000E+01  1.20100000E+01  1.00800000E+00  1.20100000E+01  1.20100000E+01
  1.00800000E+00  1.20100000E+01  1.20100000E+01  1.00800000E+00  1.20100000E+01
  1.20100000E+01  1.00800000E+00  1.20100000E+01  1.00800000E+00  1.00800000E+00
  1.00800000E+00  1.20100000E+01  1.20100000E+01  1.20100000E+01  1.20100000E+01
  1.20100000E+01  1.00800000E+00  1.20100000E+01  1.20100000E+01  1.20100000E+01
  1.20100000E+01  1.20100000E+01  1.00800000E+00  1.00800000E+00  1.20100000E+01
  1.00800000E+00  1.20100000E+01  1.20100000E+01  1.00800000E+00  1.00800000E+00
  1.00800000E+00  1.20100000E+01  1.20100000E+01  1.00800000E+00  1.20100000E+01
  1.20100000E+01  1.00800000E+00  1.20100000E+01  1.20100000E+01  1.00800000E+00
  1.20100000E+01  1.20100000E+01  1.00800000E+00  1.20100000E+01  1.00800000E+00
  1.00800000E+00  1.00800000E+00  1.20100000E+01  1.20100000E+01  1.20100000E+01
  1.20100000E+01  1.20100000E+01  1.00800000E+00  1.20100000E+01  1.20100000E+01
  1.20100000E+01  1.20100000E+01  1.20100000E+01  1.00800000E+00  1.00800000E+00
  1.20100000E+01  1.00800000E+00  1.20100000E+01  1.20100000E+01  1.00800000E+00
  1.00800000E+00  1.00800000E+00  1.20100000E+01  1.20100000E+01  1.00800000E+00
  1.20100000E+01  1.20100000E+01  1.00800000E+00  1.20100000E+01  1.20100000E+01
  1.00800000E+00  1.20100000E+01  1.20100000E+01  1.00800000E+00  1.20100000E+01
  1.00800000E+00  1.00800000E+00  1.00800000E+00  1.20100000E+01  1.20100000E+01
  1.20100000E+01  1.20100000E+01  1.20100000E+01  1.00800000E+00  1.20100000E+01
  1.20100000E+01  1.20100000E+01  1.20100000E+01  1.20100000E+01  1.00800000E+00
  1.00800000E+00  1.20100000E+01  1.00800000E+00  1.20100000E+01  1.20100000E+01
  1.00800000E+00  1.00800000E+00  1.00800000E+00  1.20100000E+01  1.20100000E+01
  1.00800000E+00  1.20100000E+01  1.20100000E+01  1.00800000E+00  1.20100000E+01
  1.20100000E+01  1.00800000E+00  1.20100000E+01  1.20100000E+01  1.00800000E+00
  1.20100000E+01  1.00800000E+00  1.00800000E+00  1.00800000E+00  1.20100000E+01
  1.20100000E+01  1.20100000E+01  1.20100000E+01  1.20100000E+01  1.00800000E+00
  1.20100000E+01  1.20100000E+01  1.20100000E+01  1.20100000E+01  1.20100000E+01
  1.00800000E+00  1.00800000E+00  1.20100000E+01  1.00800000E+00  1.20100000E+01
  1.20100000E+01  1.00800000E+00  1.00800000E+00  1.00800000E+00  1.20100000E+01
  1.20100000E+01  1.00800000E+00  1.20100000E+01  1.20100000E+01  1.00800000E+00
  1.20100000E+01  1.20100000E+01  1.00800000E+00  1.20100000E+01  1.20100000E+01
  1.00800000E+00  1.20100000E+01  1.00800000E+00  1.00800000E+00  1.00800000E+00
  1.20100000E+01  1.20100000E+01  1.20100000E+01  1.20100000E+01  1.20100000E+01
  1.00800000E+00  1.20100000E+01  1.20100000E+01  1.20100000E+01  1.20100000E+01
  1.20100000E+01  1.00800000E+00  1.00800000E+00  1.20100000E+01  1.00800000E+00
  1.20100000E+01  1.20100000E+01  1.00800000E+00  1.00800000E+00  1.00800000E+00
  1.20100000E+01  1.20100000E+01  1.00800000E+00  1.20100000E+01  1.20100000E+01
  1.00800000E+00  1.20100000E+01  1.20100000E+01  1.00800000E+00  1.20100000E+01
  1.20100000E+01  1.00800000E+00  1.20100000E+01  1.00800000E+00  1.00800000E+00
  1.00800000E+00  1.20100000E+01  1.20100000E+01  1.20100000E+01  1.20100000E+01
  1.20100000E+01  1.00800000E+00  1.20100000E+01  1.20100000E+01  1.20100000E+01
  1.20100000E+01  1.20100000E+01  1.00800000E+00  1.00800000E+00  1.20100000E+01
  1.00800000E+00  1.20100000E+01  1.20100000E+01  1.00800000E+00  1.00800000E+00
  1.00800000E+00  1.20100000E+01  1.20100000E+01  1.00800000E+00  1.20100000E+01
  1.20100000E+01  1.00800000E+00  1.20100000E+01  1.20100000E+01  1.00800000E+00
  1.20100000E+01  1.20100000E+01  1.00800000E+00  1.20100000E+01  1.00800000E+00
  1.00800000E+00  1.00800000E+00  1.20100000E+01  1.20100000E+01  1.20100000E+01
  1.20100000E+01  1.20100000E+01  1.00800000E+00  1.20100000E+01  1.20100000E+01
  1.20100000E+01  1.20100000E+01  1.20100000E+01  1.00800000E+00  1.00800000E+00
  1.20100000E+01  1.00800000E+00  1.20100000E+01  1.20100000E+01  1.00800000E+00
  1.00800000E+00  1.00800000E+00  1.20100000E+01  1.20100000E+01  1.00800000E+00
  1.20100000E+01  1.20100000E+01  1.00800000E+00  1.20100000E+01  1.20100000E+01
  1.00800000E+00  1.20100000E+01  1.20100000E+01  1.00800000E+00  1.20100000E+01
  1.00800000E+00  1.00800000E+00  1.00800000E+00  1.20100000E+01  1.20100000E+01
  1.20100000E+01  1.20100000E+01  1.20100000E+01  1.00800000E+00  1.20100000E+01
  1.20100000E+01  1.20100000E+01  1.20100000E+01  1.20100000E+01  1.00800000E+00
  1.00800000E+00  1.20100000E+01  1.00800000E+00  1.20100000E+01  1.20100000E+01
  1.00800000E+00  1.00800000E+00  1.00800000E+00  1.20100000E+01  1.20100000E+01
  1.00800000E+00  1.20100000E+01  1.20100000E+01  1.00800000E+00  1.20100000E+01
  1.20100000E+01  1.00800000E+00  1.20100000E+01  1.20100000E+01  1.00800000E+00
  1.20100000E+01  1.00800000E+00  1.00800000E+00  1.00800000E+00  1.20100000E+01
  1.20100000E+01  1.20100000E+01  1.20100000E+01  1.20100000E+01  1.00800000E+00
  1.20100000E+01  1.20100000E+01  1.20100000E+01  1.20100000E+01  1.20100000E+01
  1.00800000E+00  1.00800000E+00  1.20100000E+01  1.00800000E+00  1.20100000E+01
  1.20100000E+01  1.00800000E+00  1.00800000E+00  1.00800000E+00  1.20100000E+01
  1.20100000E+01  1.00800000E+00  1.20100000E+01  1.20100000E+01  1.00800000E+00
  1.20100000E+01  1.20100000E+01  1.00800000E+00  1.20100000E+01  1.20100000E+01
  1.00800000E+00  1.20100000E+01  1.00800000E+00  1.00800000E+00  1.00800000E+00
  1.20100000E+01  1.20100000E+01  1.20100000E+01  1.20100000E+01  1.20100000E+01
  1.00800000E+00  1.20100000E+01  1.20100000E+01  1.20100000E+01  1.20100000E+01
  1.20100000E+01  1.00800000E+00  1.00800000E+00  1.20100000E+01  1.00800000E+00
  1.20100000E+01  1.20100000E+01  1.00800000E+00  1.00800000E+00  1.00800000E+00
  1.20100000E+01  1.20100000E+01  1.00800000E+00  1.20100000E+01  1.20100000E+01
  1.00800000E+00  1.20100000E+01  1.20100000E+01  1.00800000E+00  1.20100000E+01
  1.20100000E+01  1.00800000E+00  1.20100000E+01  1.00800000E+00  1.00800000E+00
  1.00800000E+00  1.20100000E+01  1.20100000E+01  1.20100000E+01  1.20100000E+01
  1.20100000E+01  1.00800000E+00  1.20100000E+01  1.20100000E+01  1.20100000E+01
  1.20100000E+01  1.20100000E+01  1.00800000E+00  1.00800000E+00  1.20100000E+01
  1.00800000E+00  1.20100000E+01  1.20100000E+01  1.00800000E+00  1.00800000E+00
  1.00800000E+00  1.20100000E+01  1.20100000E+01  1.00800000E+00  1.20100000E+01
  1.20100000E+01  1.00800000E+00  1.20100000E+01  1.20100000E+01  1.00800000E+00
  1.20100000E+01  1.20100000E+01  1.00800000E+00  1.20100000E+01  1.00800000E+00
  1.00800000E+00  1.00800000E+00  1.20100000E+01  1.20100000E+01  1.20100000E+01
  1.20100000E+01  1.20100000E+01  1.00800000E+00  1.20100000E+01  1.20100000E+01
  1.20100000E+01  1.20100000E+01  1.20100000E+01  1.00800000E+00  1.00800000E+00
  1.20100000E+01  1.00800000E+00  1.20100000E+01  1.20100000E+01  1.00800000E+00
  1.00800000E+00  1.00800000E+00  1.20100000E+01  1.20100000E+01  1.00800000E+00
  1.20100000E+01  1.20100000E+01  1.00800000E+00  1.20100000E+01  1.20100000E+01
  1.00800000E+00  1.20100000E+01  1.20100000E+01  1.00800000E+00  1.20100000E+01
  1.00800000E+00  1.00800000E+00  1.00800000E+00  1.20100000E+01  1.20100000E+01
  1.20100000E+01  1.20100000E+01  1.20100000E+01  1.00800000E+00  1.20100000E+01
  1.20100000E+01  1.20100000E+01  1.20100000E+01  1.20100000E+01  1.00800000E+00
  1.00800000E+00  1.20100000E+01  1.00800000E+00  1.20100000E+01  1.20100000E+01
  1.00800000E+00  1.00800000E+00  1.00800000E+00  1.20100000E+01  1.20100000E+01
  1.00800000E+00  1.20100000E+01  1.20100000E+01  1.00800000E+00  1.20100000E+01
  1.20100000E+01  1.00800000E+00  1.20100000E+01  1.20100000E+01  1.00800000E+00
  1.20100000E+01  1.00800000E+00  1.00800000E+00  1.00800000E+00  1.20100000E+01
  1.20100000E+01  1.20100000E+01  1.20100000E+01  1.20100000E+01  1.00800000E+00
  1.20100000E+01  1.20100000E+01  1.20100000E+01  1.20100000E+01  1.20100000E+01
  1.00800000E+00  1.00800000E+00  1.20100000E+01  1.00800000E+00  1.20100000E+01
  1.20100000E+01  1.00800000E+00  1.00800000E+00  1.00800000E+00  1.20100000E+01
  1.20100000E+01  1.00800000E+00  1.20100000E+01  1.20100000E+01  1.00800000E+00
  1.20100000E+01  1.20100000E+01  1.00800000E+00  1.20100000E+01  1.20100000E+01
  1.00800000E+00  1.20100000E+01  1.00800000E+00  1.00800000E+00  1.00800000E+00
  1.20100000E+01  1.20100000E+01  1.20100000E+01  1.20100000E+01  1.20100000E+01
  1.00800000E+00  1.20100000E+01  1.20100000E+01  1.20100000E+01  1.20100000E+01
  1.20100000E+01  1.00800000E+00  1.00800000E+00  1.20100000E+01  1.00800000E+00
  1.20100000E+01  1.20100000E+01  1.00800000E+00  1.00800000E+00  1.00800000E+00
  1.20100000E+01  1.20100000E+01  1.00800000E+00  1.20100000E+01  1.20100000E+01
  1.00800000E+00  1.20100000E+01  1.20100000E+01  1.00800000E+00  1.20100000E+01
  1.20100000E+01  1.00800000E+00  1.20100000E+01  1.00800000E+00  1.00800000E+00
  1.00800000E+00  1.20100000E+01  1.20100000E+01  1.20100000E+01  1.20100000E+01
  1.20100000E+01  1.00800000E+00  1.20100000E+01  1.20100000E+01  1.20100000E+01
  1.20100000E+01  1.20100000E+01  1.00800000E+00  1.00800000E+00  1.20100000E+01
  1.00800000E+00  1.20100000E+01  1.20100000E+01  1.00800000E+00  1.00800000E+00
  1.00800000E+00  1.20100000E+01  1.20100000E+01  1.00800000E+00  1.20100000E+01
  1.20100000E+01  1.00800000E+00  1.20100000E+01  1.20100000E+01  1.00800000E+00
  1.20100000E+01  1.20100000E+01  1.00800000E+00  1.20100000E+01  1.00800000E+00
  1.00800000E+00  1.00800000E+00  1.20100000E+01  1.20100000E+01  1.20100000E+01
  1.20100000E+01  1.20100000E+01  1.00800000E+00  1.20100000E+01  1.20100000E+01
  1.20100000E+01  1.20100000E+01  1.20100000E+01  1.00800000E+00  1.00800000E+00
  1.20100000E+01  1.00800000E+00  1.20100000E+01  1.20100000E+01  1.00800000E+00
  1.00800000E+00  1.00800000E+00  1.20100000E+01  1.20100000E+01  1.00800000E+00
  1.20100000E+01  1.20100000E+01  1.00800000E+00  1.20100000E+01  1.20100000E+01
  1.00800000E+00  1.20100000E+01  1.20100000E+01  1.00800000E+00  1.20100000E+01
  1.00800000E+00  1.00800000E+00  1.00800000E+00  1.20100000E+01  1.20100000E+01
  1.20100000E+01  1.20100000E+01  1.20100000E+01  1.00800000E+00  1.20100000E+01
  1.20100000E+01  1.20100000E+01  1.20100000E+01  1.20100000E+01  1.00800000E+00
  1.00800000E+00  1.20100000E+01  1.00800000E+00  1.20100000E+01  1.20100000E+01
  1.00800000E+00  1.00800000E+00  1.00800000E+00  1.20100000E+01  1.20100000E+01
  1.00800000E+00  1.20100000E+01  1.20100000E+01  1.00800000E+00  1.20100000E+01
  1.20100000E+01  1.00800000E+00  1.20100000E+01  1.20100000E+01  1.00800000E+00
  1.20100000E+01  1.00800000E+00  1.00800000E+00  1.00800000E+00  1.20100000E+01
  1.20100000E+01  1.20100000E+01  1.20100000E+01  1.20100000E+01  1.00800000E+00
  1.20100000E+01  1.20100000E+01  1.20100000E+01  1.20100000E+01  1.20100000E+01
  1.00800000E+00  1.00800000E+00  1.20100000E+01  1.00800000E+00  1.20100000E+01
  1.20100000E+01  1.00800000E+00  1.00800000E+00  1.00800000E+00  1.20100000E+01
  1.20100000E+01  1.00800000E+00  1.20100000E+01  1.20100000E+01  1.00800000E+00
  1.20100000E+01  1.20100000E+01  1.00800000E+00  1.20100000E+01  1.20100000E+01
  1.00800000E+00  1.20100000E+01  1.00800000E+00  1.00800000E+00  1.00800000E+00
  1.20100000E+01  1.20100000E+01  1.20100000E+01  1.20100000E+01  1.20100000E+01
  1.00800000E+00  1.20100000E+01  1.20100000E+01  1.20100000E+01  1.20100000E+01
  1.20100000E+01  1.00800000E+00  1.00800000E+00  1.20100000E+01  1.00800000E+00
  1.20100000E+01  1.20100000E+01  1.00800000E+00  1.00800000E+00  1.00800000E+00
  1.20100000E+01  1.20100000E+01  1.00800000E+00  1.20100000E+01  1.20100000E+01
  1.00800000E+00  1.20100000E+01  1.20100000E+01  1.00800000E+00  1.20100000E+01
  1.20100000E+01  1.00800000E+00  1.20100000E+01  1.00800000E+00  1.00800000E+00
  1.00800000E+00  1.20100000E+01  1.20100000E+01  1.20100000E+01  1.20100000E+01
  1.20100000E+01  1.00800000E+00  1.20100000E+01  1.20100000E+01  1.20100000E+01
  1.20100000E+01  1.20100000E+01  1.00800000E+00  1.00800000E+00  1.20100000E+01
  1.00800000E+00  1.20100000E+01  1.20100000E+01  1.00800000E+00  1.00800000E+00
  1.00800000E+00  1.20100000E+01  1.20100000E+01  1.00800000E+00  1.20100000E+01
  1.20100000E+01  1.00800000E+00  1.20100000E+01  1.20100000E+01  1.00800000E+00
  1.20100000E+01  1.20100000E+01  1.00800000E+00  1.20100000E+01  1.00800000E+00
  1.00800000E+00  1.00800000E+00  1.20100000E+01  1.20100000E+01  1.20100000E+01
  1.20100000E+01  1.20100000E+01  1.00800000E+00  1.20100000E+01  1.20100000E+01
  1.20100000E+01  1.20100000E+01  1.20100000E+01  1.00800000E+00  1.00800000E+00
  1.20100000E+01  1.00800000E+00  1.20100000E+01  1.20100000E+01  1.00800000E+00
  1.00800000E+00  1.00800000E+00  1.20100000E+01  1.20100000E+01  1.00800000E+00
  1.20100000E+01  1.20100000E+01  1.00800000E+00  1.20100000E+01  1.20100000E+01
  1.00800000E+00  1.20100000E+01  1.20100000E+01  1.00800000E+00  1.20100000E+01
  1.00800000E+00  1.00800000E+00  1.00800000E+00  1.20100000E+01  1.20100000E+01
  1.20100000E+01  1.20100000E+01  1.20100000E+01  1.00800000E+00  1.20100000E+01
  1.20100000E+01  1.20100000E+01  1.20100000E+01  1.20100000E+01  1.00800000E+00
  1.00800000E+00  1.20100000E+01  1.00800000E+00  1.20100000E+01  1.20100000E+01
  1.00800000E+00  1.00800000E+00  1.00800000E+00  1.20100000E+01  1.20100000E+01
  1.00800000E+00  1.20100000E+01  1.20100000E+01  1.00800000E+00  1.20100000E+01
  1.20100000E+01  1.00800000E+00  1.20100000E+01  1.20100000E+01  1.00800000E+00
  1.20100000E+01  1.00800000E+00  1.00800000E+00  1.00800000E+00  1.20100000E+01
  1.20100000E+01  1.20100000E+01  1.20100000E+01  1.20100000E+01  1.00800000E+00
  1.20100000E+01  1.20100000E+01  1.20100000E+01  1.20100000E+01  1.20100000E+01
  1.00800000E+00  1.00800000E+00  1.20100000E+01  1.00800000E+00  1.20100000E+01
  1.20100000E+01  1.00800000E+00  1.00800000E+00  1.00800000E+00  1.20100000E+01
  1.20100000E+01  1.00800000E+00  1.20100000E+01  1.20100000E+01  1.00800000E+00
  1.20100000E+01  1.20100000E+01  1.00800000E+00  1.20100000E+01  1.20100000E+01
  1.00800000E+00  1.20100000E+01  1.00800000E+00  1.00800000E+00  1.00800000E+00
  1.20100000E+01  1.20100000E+01  1.20100000E+01  1.20100000E+01  1.20100000E+01
  1.00800000E+00  1.20100000E+01  1.20100000E+01  1.20100000E+01  1.20100000E+01
  1.20100000E+01  1.00800000E+00  1.00800000E+00  1.20100000E+01  1.00800000E+00
  1.20100000E+01  1.20100000E+01  1.00800000E+00  1.00800000E+00  1.00800000E+00
  1.20100000E+01  1.20100000E+01  1.00800000E+00  1.20100000E+01  1.20100000E+01
  1.00800000E+00  1.20100000E+01  1.20100000E+01  1.00800000E+00  1.20100000E+01
  1.20100000E+01  1.00800000E+00  1.20100000E+01  1.00800000E+00  1.00800000E+00
  1.00800000E+00  1.20100000E+01  1.20100000E+01  1.20100000E+01  1.20100000E+01
  1.20100000E+01  1.00800000E+00  1.20100000E+01  1.20100000E+01  1.20100000E+01
  1.20100000E+01  1.20100000E+01  1.00800000E+00  1.00800000E+00  1.20100000E+01
  1.00800000E+00  1.20100000E+01  1.20100000E+01  1.00800000E+00  1.00800000E+00
  1.00800000E+00  1.20100000E+01  1.20100000E+01  1.00800000E+00  1.20100000E+01
  1.20100000E+01  1.00800000E+00  1.20100000E+01  1.20100000E+01  1.00800000E+00
  1.20100000E+01  1.20100000E+01  1.00800000E+00  1.20100000E+01  1.00800000E+00
  1.00800000E+00  1.00800000E+00  1.20100000E+01  1.20100000E+01  1.20100000E+01
  1.20100000E+01  1.20100000E+01  1.00800000E+00  1.20100000E+01  1.20100000E+01
  1.20100000E+01  1.20100000E+01  1.20100000E+01  1.00800000E+00  1.00800000E+00
  1.20100000E+01  1.00800000E+00  1.20100000E+01  1.20100000E+01  1.00800000E+00
  1.00800000E+00  1.00800000E+00  1.20100000E+01  1.20100000E+01  1.00800000E+00
  1.20100000E+01  1.20100000E+01  1.00800000E+00  1.20100000E+01  1.20100000E+01
  1.00800000E+00  1.20100000E+01  1.20100000E+01  1.00800000E+00  1.20100000E+01
  1.00800000E+00  1.00800000E+00  1.00800000E+00  1.20100000E+01  1.20100000E+01
  1.20100000E+01  1.20100000E+01  1.20100000E+01  1.00800000E+00  1.20100000E+01
  1.20100000E+01  1.20100000E+01  1.20100000E+01  1.20100000E+01  1.00800000E+00
  1.00800000E+00  1.20100000E+01  1.00800000E+00  1.20100000E+01  1.20100000E+01
  1.00800000E+00  1.00800000E+00  1.00800000E+00  1.20100000E+01  1.20100000E+01
  1.00800000E+00  1.20100000E+01  1.20100000E+01  1.00800000E+00  1.20100000E+01
  1.20100000E+01  1.00800000E+00  1.20100000E+01  1.20100000E+01  1.00800000E+00
  1.20100000E+01  1.00800000E+00  1.00800000E+00  1.00800000E+00  1.20100000E+01
  1.20100000E+01  1.20100000E+01  1.20100000E+01  1.20100000E+01  1.00800000E+00
  1.20100000E+01  1.20100000E+01  1.20100000E+01  1.20100000E+01  1.20100000E+01
  1.00800000E+00  1.00800000E+00  1.20100000E+01  1.00800000E+00  1.20100000E+01
  1.20100000E+01  1.00800000E+00  1.00800000E+00  1.00800000E+00  1.20100000E+01
  1.20100000E+01  1.00800000E+00  1.20100000E+01  1.20100000E+01  1.00800000E+00
  1.20100000E+01  1.20100000E+01  1.00800000E+00  1.20100000E+01  1.20100000E+01
  1.00800000E+00  1.20100000E+01  1.00800000E+00  1.00800000E+00  1.00800000E+00
  1.20100000E+01  1.20100000E+01  1.20100000E+01  1.20100000E+01  1.20100000E+01
  1.00800000E+00  1.20100000E+01  1.20100000E+01  1.20100000E+01  1.20100000E+01
  1.20100000E+01  1.00800000E+00  1.00800000E+00  1.20100000E+01  1.00800000E+00
  1.20100000E+01  1.20100000E+01  1.00800000E+00  1.00800000E+00  1.00800000E+00
  1.20100000E+01  1.20100000E+01  1.00800000E+00  1.20100000E+01  1.20100000E+01
  1.00800000E+00  1.20100000E+01  1.20100000E+01  1.00800000E+00  1.20100000E+01
  1.20100000E+01  1.00800000E+00  1.20100000E+01  1.00800000E+00  1.00800000E+00
  1.00800000E+00  1.20100000E+01  1.20100000E+01  1.20100000E+01  1.20100000E+01
  1.20100000E+01  1.00800000E+00  1.20100000E+01  1.20100000E+01  1.20100000E+01
  1.20100000E+01  1.20100000E+01  1.00800000E+00  1.00800000E+00  1.20100000E+01
  1.00800000E+00  1.20100000E+01  1.20100000E+01  1.00800000E+00  1.00800000E+00
  1.00800000E+00  1.20100000E+01  1.20100000E+01  1.00800000E+00  1.20100000E+01
  1.20100000E+01  1.00800000E+00  1.20100000E+01  1.20100000E+01  1.00800000E+00
  1.20100000E+01  1.20100000E+01  1.00800000E+00  1.20100000E+01  1.00800000E+00
  1.00800000E+00  1.00800000E+00  1.20100000E+01  1.20100000E+01  1.20100000E+01
  1.20100000E+01  1.20100000E+01  1.00800000E+00  1.20100000E+01  1.20100000E+01
  1.20100000E+01  1.20100000E+01  1.20100000E+01  1.00800000E+00  1.00800000E+00
  1.20100000E+01  1.00800000E+00  1.20100000E+01  1.20100000E+01  1.00800000E+00
  1.00800000E+00  1.00800000E+00  1.20100000E+01  1.20100000E+01  1.00800000E+00
  1.20100000E+01  1.20100000E+01  1.00800000E+00  1.20100000E+01  1.20100000E+01
  1.00800000E+00  1.20100000E+01  1.20100000E+01  1.00800000E+00  1.20100000E+01
  1.00800000E+00  1.00800000E+00  1.00800000E+00  1.20100000E+01  1.20100000E+01
  1.20100000E+01  1.20100000E+01  1.20100000E+01  1.00800000E+00  1.20100000E+01
  1.20100000E+01  1.20100000E+01  1.20100000E+01  1.20100000E+01  1.00800000E+00
  1.00800000E+00  1.20100000E+01  1.00800000E+00  1.20100000E+01  1.20100000E+01
  1.00800000E+00  1.00800000E+00  1.00800000E+00  1.20100000E+01  1.20100000E+01
  1.00800000E+00  1.20100000E+01  1.20100000E+01  1.00800000E+00  1.20100000E+01
  1.20100000E+01  1.00800000E+00  1.20100000E+01  1.20100000E+01  1.00800000E+00
  1.20100000E+01  1.00800000E+00  1.00800000E+00  1.00800000E+00  1.20100000E+01
  1.20100000E+01  1.20100000E+01  1.20100000E+01  1.20100000E+01  1.00800000E+00
  1.20100000E+01  1.20100000E+01  1.20100000E+01  1.20100000E+01  1.20100000E+01
  1.00800000E+00  1.00800000E+00  1.20100000E+01  1.00800000E+00  1.20100000E+01
  1.20100000E+01  1.00800000E+00  1.00800000E+00  1.00800000E+00  1.20100000E+01
  1.20100000E+01  1.00800000E+00  1.20100000E+01  1.20100000E+01  1.00800000E+00
  1.20100000E+01  1.20100000E+01  1.00800000E+00  1.20100000E+01  1.20100000E+01
  1.00800000E+00  1.20100000E+01  1.00800000E+00  1.00800000E+00  1.00800000E+00
  1.20100000E+01  1.20100000E+01  1.20100000E+01  1.20100000E+01  1.20100000E+01
  1.00800000E+00  1.20100000E+01  1.20100000E+01  1.20100000E+01  1.20100000E+01
  1.20100000E+01  1.00800000E+00  1.00800000E+00  1.20100000E+01  1.00800000E+00
  1.20100000E+01  1.20100000E+01  1.00800000E+00  1.00800000E+00  1.00800000E+00
  1.20100000E+01  1.20100000E+01  1.00800000E+00  1.20100000E+01  1.20100000E+01
  1.00800000E+00  1.20100000E+01  1.20100000E+01  1.00800000E+00  1.20100000E+01
  1.20100000E+01  1.00800000E+00  1.20100000E+01  1.00800000E+00  1.00800000E+00
  1.00800000E+00  1.20100000E+01  1.20100000E+01  1.20100000E+01  1.20100000E+01
  1.20100000E+01  1.00800000E+00  1.20100000E+01  1.20100000E+01  1.20100000E+01
  1.20100000E+01  1.20100000E+01  1.00800000E+00  1.00800000E+00  1.20100000E+01
  1.00800000E+00  1.20100000E+01  1.20100000E+01  1.00800000E+00  1.00800000E+00
  1.00800000E+00  1.20100000E+01  1.20100000E+01  1.00800000E+00  1.20100000E+01
  1.20100000E+01  1.00800000E+00  1.20100000E+01  1.20100000E+01  1.00800000E+00
  1.20100000E+01  1.20100000E+01  1.00800000E+00  1.20100000E+01  1.00800000E+00
  1.00800000E+00  1.00800000E+00  1.20100000E+01  1.20100000E+01  1.20100000E+01
  1.20100000E+01  1.20100000E+01  1.00800000E+00  1.20100000E+01  1.20100000E+01
  1.20100000E+01  1.20100000E+01  1.20100000E+01  1.00800000E+00  1.00800000E+00
  1.20100000E+01  1.00800000E+00  1.20100000E+01  1.20100000E+01  1.00800000E+00
  1.00800000E+00  1.00800000E+00  1.20100000E+01  1.20100000E+01  1.00800000E+00
  1.20100000E+01  1.20100000E+01  1.00800000E+00  1.20100000E+01  1.20100000E+01
  1.00800000E+00  1.20100000E+01  1.20100000E+01  1.00800000E+00  1.20100000E+01
  1.00800000E+00  1.00800000E+00  1.00800000E+00  1.20100000E+01  1.20100000E+01
  1.20100000E+01  1.20100000E+01  1.20100000E+01  1.00800000E+00  1.20100000E+01
  1.20100000E+01  1.20100000E+01  1.20100000E+01  1.20100000E+01  1.00800000E+00
  1.00800000E+00  1.20100000E+01  1.00800000E+00  1.20100000E+01  1.20100000E+01
  1.00800000E+00  1.00800000E+00  1.00800000E+00  1.20100000E+01  1.20100000E+01
  1.00800000E+00  1.20100000E+01  1.20100000E+01  1.00800000E+00  1.20100000E+01
  1.20100000E+01  1.00800000E+00  1.20100000E+01  1.20100000E+01  1.00800000E+00
  1.20100000E+01  1.00800000E+00  1.00800000E+00  1.00800000E+00  1.20100000E+01
  1.20100000E+01  1.20100000E+01  1.20100000E+01  1.20100000E+01  1.00800000E+00
  1.20100000E+01  1.20100000E+01  1.20100000E+01  1.20100000E+01  1.20100000E+01
  1.00800000E+00  1.00800000E+00  1.20100000E+01  1.00800000E+00  1.20100000E+01
  1.20100000E+01  1.00800000E+00  1.00800000E+00  1.00800000E+00  1.20100000E+01
  1.20100000E+01  1.00800000E+00  1.20100000E+01  1.20100000E+01  1.00800000E+00
  1.20100000E+01  1.20100000E+01  1.00800000E+00  1.20100000E+01  1.20100000E+01
  1.00800000E+00  1.20100000E+01  1.00800000E+00  1.00800000E+00  1.00800000E+00
  1.20100000E+01  1.20100000E+01  1.20100000E+01  1.20100000E+01  1.20100000E+01
  1.00800000E+00  1.20100000E+01  1.20100000E+01  1.20100000E+01  1.20100000E+01
  1.20100000E+01  1.00800000E+00  1.00800000E+00  1.20100000E+01  1.00800000E+00
  1.20100000E+01  1.20100000E+01  1.00800000E+00  1.00800000E+00  1.00800000E+00
  1.20100000E+01  1.20100000E+01  1.00800000E+00  1.20100000E+01  1.20100000E+01
  1.00800000E+00  1.20100000E+01  1.20100000E+01  1.00800000E+00  1.20100000E+01
  1.20100000E+01  1.00800000E+00  1.20100000E+01  1.00800000E+00  1.00800000E+00
  1.00800000E+00  1.20100000E+01  1.20100000E+01  1.20100000E+01  1.20100000E+01
  1.20100000E+01  1.00800000E+00  1.20100000E+01  1.20100000E+01  1.20100000E+01
  1.20100000E+01  1.20100000E+01  1.00800000E+00  1.00800000E+00  1.20100000E+01
  1.00800000E+00  1.20100000E+01  1.20100000E+01  1.00800000E+00  1.00800000E+00
  1.00800000E+00  1.20100000E+01  1.20100000E+01  1.00800000E+00  1.20100000E+01
  1.20100000E+01  1.00800000E+00  1.20100000E+01  1.20100000E+01  1.00800000E+00
  1.20100000E+01  1.20100000E+01  1.00800000E+00  1.20100000E+01  1.00800000E+00
  1.00800000E+00  1.00800000E+00  1.20100000E+01  1.20100000E+01  1.20100000E+01
  1.20100000E+01  1.20100000E+01  1.00800000E+00  1.20100000E+01  1.20100000E+01
  1.20100000E+01  1.20100000E+01  1.20100000E+01  1.00800000E+00  1.00800000E+00
  1.20100000E+01  1.00800000E+00  1.20100000E+01  1.20100000E+01  1.00800000E+00
  1.00800000E+00  1.00800000E+00  1.20100000E+01  1.20100000E+01  1.00800000E+00
  1.20100000E+01  1.20100000E+01  1.00800000E+00  1.20100000E+01  1.20100000E+01
  1.00800000E+00  1.20100000E+01  1.20100000E+01  1.00800000E+00  1.20100000E+01
  1.00800000E+00  1.00800000E+00  1.00800000E+00  1.20100000E+01  1.20100000E+01
  1.20100000E+01  1.20100000E+01  1.20100000E+01  1.00800000E+00  1.20100000E+01
  1.20100000E+01  1.20100000E+01  1.20100000E+01  1.20100000E+01  1.00800000E+00
  1.00800000E+00  1.20100000E+01  1.00800000E+00  1.20100000E+01  1.20100000E+01
  1.00800000E+00  1.00800000E+00  1.00800000E+00  1.20100000E+01  1.20100000E+01
  1.00800000E+00  1.20100000E+01  1.20100000E+01  1.00800000E+00  1.20100000E+01
  1.20100000E+01  1.00800000E+00  1.20100000E+01  1.20100000E+01  1.00800000E+00
  1.20100000E+01  1.00800000E+00  1.00800000E+00  1.00800000E+00  1.20100000E+01
  1.20100000E+01  1.20100000E+01  1.20100000E+01  1.20100000E+01  1.00800000E+00
  1.20100000E+01  1.20100000E+01  1.20100000E+01  1.20100000E+01  1.20100000E+01
  1.00800000E+00  1.00800000E+00  1.20100000E+01  1.00800000E+00  1.20100000E+01
  1.20100000E+01  1.00800000E+00  1.00800000E+00  1.00800000E+00  1.20100000E+01
  1.20100000E+01  1.00800000E+00  1.20100000E+01  1.20100000E+01  1.00800000E+00
  1.20100000E+01  1.20100000E+01  1.00800000E+00  1.20100000E+01  1.20100000E+01
  1.00800000E+00  1.20100000E+01  1.00800000E+00  1.00800000E+00  1.00800000E+00
  1.20100000E+01  1.20100000E+01  1.20100000E+01  1.20100000E+01  1.20100000E+01
  1.00800000E+00  1.20100000E+01  1.20100000E+01  1.20100000E+01  1.20100000E+01
  1.20100000E+01  1.00800000E+00  1.00800000E+00  1.20100000E+01  1.00800000E+00
  1.20100000E+01  1.20100000E+01  1.00800000E+00  1.00800000E+00  1.00800000E+00
  1.20100000E+01  1.20100000E+01  1.00800000E+00  1.20100000E+01  1.20100000E+01
  1.00800000E+00  1.20100000E+01  1.20100000E+01  1.00800000E+00  1.20100000E+01
  1.20100000E+01  1.00800000E+00  1.20100000E+01  1.00800000E+00  1.00800000E+00
  1.00800000E+00  1.20100000E+01  1.20100000E+01  1.20100000E+01  1.20100000E+01
  1.20100000E+01  1.00800000E+00  1.20100000E+01  1.20100000E+01  1.20100000E+01
  1.20100000E+01  1.20100000E+01  1.00800000E+00  1.00800000E+00  1.20100000E+01
  1.00800000E+00  1.20100000E+01  1.20100000E+01  1.00800000E+00  1.00800000E+00
  1.00800000E+00  1.20100000E+01  1.20100000E+01  1.00800000E+00  1.20100000E+01
  1.20100000E+01  1.00800000E+00  1.20100000E+01  1.20100000E+01  1.00800000E+00
  1.20100000E+01  1.20100000E+01  1.00800000E+00  1.20100000E+01  1.00800000E+00
  1.00800000E+00  1.00800000E+00  1.20100000E+01  1.20100000E+01  1.20100000E+01
  1.20100000E+01  1.20100000E+01  1.00800000E+00  1.20100000E+01  1.20100000E+01
  1.20100000E+01  1.20100000E+01  1.20100000E+01  1.00800000E+00  1.00800000E+00
  1.20100000E+01  1.00800000E+00  1.20100000E+01  1.20100000E+01  1.00800000E+00
  1.00800000E+00  1.00800000E+00  1.20100000E+01  1.20100000E+01  1.00800000E+00
  1.20100000E+01  1.20100000E+01  1.00800000E+00  1.20100000E+01  1.20100000E+01
  1.00800000E+00  1.20100000E+01  1.20100000E+01  1.00800000E+00  1.20100000E+01
  1.00800000E+00  1.00800000E+00  1.00800000E+00  1.20100000E+01  1.20100000E+01
  1.20100000E+01  1.20100000E+01  1.20100000E+01  1.00800000E+00  1.20100000E+01
  1.20100000E+01  1.20100000E+01  1.20100000E+01  1.20100000E+01  1.00800000E+00
  1.00800000E+00  1.20100000E+01  1.00800000E+00  1.20100000E+01  1.20100000E+01
  1.00800000E+00  1.00800000E+00  1.00800000E+00  1.20100000E+01  1.20100000E+01
  1.00800000E+00  1.20100000E+01  1.20100000E+01  1.00800000E+00  1.20100000E+01
  1.20100000E+01  1.00800000E+00  1.20100000E+01  1.20100000E+01  1.00800000E+00
  1.20100000E+01  1.00800000E+00  1.00800000E+00  1.00800000E+00  1.20100000E+01
  1.20100000E+01  1.20100000E+01  1.20100000E+01  1.20100000E+01  1.00800000E+00
  1.20100000E+01  1.20100000E+01  1.20100000E+01  1.20100000E+01  1.20100000E+01
  1.00800000E+00  1.00800000E+00  1.20100000E+01  1.00800000E+00  1.20100000E+01
  1.20100000E+01  1.00800000E+00  1.00800000E+00  1.00800000E+00  1.20100000E+01
  1.20100000E+01  1.00800000E+00  1.20100000E+01  1.20100000E+01  1.00800000E+00
  1.20100000E+01  1.20100000E+01  1.00800000E+00  1.20100000E+01  1.20100000E+01
  1.00800000E+00  1.20100000E+01  1.00800000E+00  1.00800000E+00  1.00800000E+00
  1.20100000E+01  1.20100000E+01  1.20100000E+01  1.20100000E+01  1.20100000E+01
  1.00800000E+00  1.20100000E+01  1.20100000E+01  1.20100000E+01  1.20100000E+01
  1.20100000E+01  1.00800000E+00  1.00800000E+00  1.20100000E+01  1.00800000E+00
  1.20100000E+01  1.20100000E+01  1.00800000E+00  1.00800000E+00  1.00800000E+00
  1.20100000E+01  1.20100000E+01  1.00800000E+00  1.20100000E+01  1.20100000E+01
  1.00800000E+00  1.20100000E+01  1.20100000E+01  1.00800000E+00  1.20100000E+01
  1.20100000E+01  1.00800000E+00  1.20100000E+01  1.00800000E+00  1.00800000E+00
  1.00800000E+00  1.20100000E+01  1.20100000E+01  1.20100000E+01  1.20100000E+01
  1.20100000E+01  1.00800000E+00  1.20100000E+01  1.20100000E+01  1.20100000E+01
  1.20100000E+01  1.20100000E+01  1.00800000E+00  1.00800000E+00  1.20100000E+01
  1.00800000E+00  1.20100000E+01  1.20100000E+01  1.00800000E+00  1.00800000E+00
  1.00800000E+00  1.20100000E+01  1.20100000E+01  1.00800000E+00  1.20100000E+01
  1.20100000E+01  1.00800000E+00  1.20100000E+01  1.20100000E+01  1.00800000E+00
  1.20100000E+01  1.20100000E+01  1.00800000E+00  1.20100000E+01  1.00800000E+00
  1.00800000E+00  1.00800000E+00  1.20100000E+01  1.20100000E+01  1.20100000E+01
  1.20100000E+01  1.20100000E+01  1.00800000E+00  1.20100000E+01  1.20100000E+01
  1.20100000E+01  1.20100000E+01  1.20100000E+01  1.00800000E+00  1.00800000E+00
  1.20100000E+01  1.00800000E+00  1.20100000E+01  1.20100000E+01  1.00800000E+00
  1.00800000E+00  1.00800000E+00  1.20100000E+01  1.20100000E+01  1.00800000E+00
  1.20100000E+01  1.20100000E+01  1.00800000E+00  1.20100000E+01  1.20100000E+01
  1.00800000E+00  1.20100000E+01  1.20100000E+01  1.00800000E+00  1.20100000E+01
  1.00800000E+00  1.00800000E+00  1.00800000E+00  1.20100000E+01  1.20100000E+01
  1.20100000E+01  1.20100000E+01  1.20100000E+01  1.00800000E+00  1.20100000E+01
  1.20100000E+01  1.20100000E+01  1.20100000E+01  1.20100000E+01  1.00800000E+00
  1.00800000E+00  1.20100000E+01  1.00800000E+00  1.20100000E+01  1.20100000E+01
  1.00800000E+00  1.00800000E+00  1.00800000E+00  1.20100000E+01  1.20100000E+01
  1.00800000E+00  1.20100000E+01  1.20100000E+01  1.00800000E+00  1.20100000E+01
  1.20100000E+01  1.00800000E+00  1.20100000E+01  1.20100000E+01  1.00800000E+00
  1.20100000E+01  1.00800000E+00  1.00800000E+00  1.00800000E+00  1.20100000E+01
  1.20100000E+01  1.20100000E+01  1.20100000E+01  1.20100000E+01  1.00800000E+00
  1.20100000E+01  1.20100000E+01  1.20100000E+01  1.20100000E+01  1.20100000E+01
  1.00800000E+00  1.00800000E+00  1.20100000E+01  1.00800000E+00  1.20100000E+01
  1.20100000E+01  1.00800000E+00  1.00800000E+00  1.00800000E+00  1.20100000E+01
  1.20100000E+01  1.00800000E+00  1.20100000E+01  1.20100000E+01  1.00800000E+00
  1.20100000E+01  1.20100000E+01  1.00800000E+00  1.20100000E+01  1.20100000E+01
  1.00800000E+00  1.20100000E+01  1.00800000E+00  1.00800000E+00  1.00800000E+00
  1.20100000E+01  1.20100000E+01  1.20100000E+01  1.20100000E+01  1.20100000E+01
  1.00800000E+00  1.20100000E+01  1.20100000E+01  1.20100000E+01  1.20100000E+01
  1.20100000E+01  1.00800000E+00  1.00800000E+00  1.20100000E+01  1.00800000E+00
  1.20100000E+01  1.20100000E+01  1.00800000E+00  1.00800000E+00  1.00800000E+00
  1.20100000E+01  1.20100000E+01  1.00800000E+00  1.20100000E+01  1.20100000E+01
  1.00800000E+00  1.20100000E+01  1.20100000E+01  1.00800000E+00  1.20100000E+01
  1.20100000E+01  1.00800000E+00  1.20100000E+01  1.00800000E+00  1.00800000E+00
  1.00800000E+00  1.20100000E+01  1.20100000E+01  1.20100000E+01  1.20100000E+01
  1.20100000E+01  1.00800000E+00  1.20100000E+01  1.20100000E+01  1.20100000E+01
  1.20100000E+01  1.20100000E+01  1.00800000E+00  1.00800000E+00  1.20100000E+01
  1.00800000E+00  1.20100000E+01  1.20100000E+01  1.00800000E+00  1.00800000E+00
  1.00800000E+00  1.20100000E+01  1.20100000E+01  1.00800000E+00  1.20100000E+01
  1.20100000E+01  1.00800000E+00  1.20100000E+01  1.20100000E+01  1.00800000E+00
  1.20100000E+01  1.20100000E+01  1.00800000E+00  1.20100000E+01  1.00800000E+00
  1.00800000E+00  1.00800000E+00  1.20100000E+01  1.20100000E+01  1.20100000E+01
  1.20100000E+01  1.20100000E+01  1.00800000E+00  1.20100000E+01  1.20100000E+01
  1.20100000E+01  1.20100000E+01  1.20100000E+01  1.00800000E+00  1.00800000E+00
  1.20100000E+01  1.00800000E+00  1.20100000E+01  1.20100000E+01  1.00800000E+00
  1.00800000E+00  1.00800000E+00  1.20100000E+01  1.20100000E+01  1.00800000E+00
  1.20100000E+01  1.20100000E+01  1.00800000E+00  1.20100000E+01  1.20100000E+01
  1.00800000E+00  1.20100000E+01  1.20100000E+01  1.00800000E+00  1.20100000E+01
  1.00800000E+00  1.00800000E+00  1.00800000E+00  1.20100000E+01  1.20100000E+01
  1.20100000E+01  1.20100000E+01  1.20100000E+01  1.00800000E+00  1.20100000E+01
  1.20100000E+01  1.20100000E+01  1.20100000E+01  1.20100000E+01  1.00800000E+00
  1.00800000E+00  1.20100000E+01  1.00800000E+00  1.20100000E+01  1.20100000E+01
  1.00800000E+00  1.00800000E+00  1.00800000E+00  1.20100000E+01  1.20100000E+01
  1.00800000E+00  1.20100000E+01  1.20100000E+01  1.00800000E+00  1.20100000E+01
  1.20100000E+01  1.00800000E+00  1.20100000E+01  1.20100000E+01  1.00800000E+00
  1.20100000E+01  1.00800000E+00  1.00800000E+00  1.00800000E+00  1.20100000E+01
  1.20100000E+01  1.20100000E+01  1.20100000E+01  1.20100000E+01  1.00800000E+00
  1.20100000E+01  1.20100000E+01  1.20100000E+01  1.20100000E+01  1.20100000E+01
  1.00800000E+00  1.00800000E+00  1.20100000E+01  1.00800000E+00  1.20100000E+01
  1.20100000E+01  1.00800000E+00  1.00800000E+00  1.00800000E+00  1.20100000E+01
  1.20100000E+01  1.00800000E+00  1.20100000E+01  1.20100000E+01  1.00800000E+00
  1.20100000E+01  1.20100000E+01  1.00800000E+00  1.20100000E+01  1.20100000E+01
  1.00800000E+00  1.20100000E+01  1.00800000E+00  1.00800000E+00  1.00800000E+00
%FLAG ATOM_TYPE_INDEX
%FORMAT(10I8)
       1       1       1       1       1       2       1       1       1       1
       1       2       2       1       2       1       1       2       2       2
       1       1       2       1       1       2       1       1       2       1
       1       2       1       2       2       2       1       1       1       1
       1       2       1       1       1       1       1       2       2       1
       2       1       1       2       2       2       1       1       2       1
       1       2       1       1       2       1       1       2       1       2
       2       2       1       1       1       1       1       2       1       1
       1       1       1       2       2       1       2       1       1       2
       2       2       1       1       2       1       1       2       1       1
       2       1       1       2       1       2       2       2       1       1
       1       1       1       2       1       1       1       1       1       2
       2       1       2       1       1       2       2       2       1       1
       2       1       1       2       1       1       2       1       1       2
       1       2       2       2       1       1       1       1       1       2
       1       1       1       1       1       2       2       1       2       1
       1       2       2       2       1       1       2       1       1       2
       1       1       2       1       1       2       1       2       2       2
       1       1       1       1       1       2       1       1       1       1
       1       2       2       1       2       1       1       2       2       2
       1       1       2       1       1       2       1       1       2       1
       1       2       1       2       2       2       1       1       1       1
       1       2       1       1       1       1       1       2       2       1
       2       1       1       2       2       2       1       1       2       1
       1       2       1       1       2       1       1       2       1       2
       2       2       1       1       1       1       1       2       1       1
       1       1       1       2       2       1       2       1       1       2
       2       2       1       1       2       1       1       2       1       1
       2       1       1       2       1       2       2       2       1       1
       1       1       1       2       1       1       1       1       1       2
       2       1       2       1       1       2       2       2       1       1
       2       1       1       2       1       1       2       1       1       2
       1       2       2       2       1       1       1       1       1       2
       1       1       1       1       1       2       2       1       2       1
       1       2       2       2       1       1       2       1       1       2
       1       1       2       1       1       2       1       2       2       2
       1       1       1       1       1       2       1       1       1       1
       1       2       2       1       2       1       1       2       2       2
       1       1       2       1       1       2       1       1       2       1
       1       2       1       2       2       2       1       1       1       1
       1       2       1       1       1       1       1       2       2       1
       2       1       1       2       2       2       1       1       2       1
       1       2       1       1       2       1       1       2       1       2
       2       2       1       1       1       1       1       2       1       1
       1       1       1       2       2       1       2       1       1       2
       2       2       1       1       2       1       1       2       1       1
       2       1       1       2       1       2       2       2       1       1
       1       1       1       2       1       1       1       1       1       2
       2       1       2       1       1       2       2       2       1       1
       2       1       1       2       1       1       2       1       1       2
       1       2       2       2       1       1       1       1       1       2
       1       1       1       1       1       2       2       1       2       1
       1       2       2       2       1       1       2       1       1       2
       1       1       2       1       1       2       1       2       2       2
       1       1       1       1       1       2       1       1       1       1
       1       2       2       1       2       1       1       2       2       2
       1       1       2       1       1       2       1       1       2       1
       1       2       1       2       2       2       1       1       1       1
       1       2       1       1       1       1       1       2       2       1
       2       1       1       2       2       2       1       1       2       1
       1       2       1       1       2       1       1       2       1       2
       2       2       1       1       1       1       1       2       1       1
       1       1       1       2       2       1       2       1       1       2
       2       2       1       1       2       1       1       2       1       1
       2       1       1       2       1       2       2       2       1       1
       1       1       1       2       1       1       1       1       1       2
       2       1       2       1       1       2       2       2       1       1
       2       1       1       2       1       1       2       1       1       2
       1       2       2       2       1       1       1       1       1       2
       1       1       1       1       1       2       2       1       2       1
       1       2       2       2       1       1       2       1       1       2
       1       1       2       1       1       2       1       2       2       2
       1       1       1       1       1       2       1       1       1       1
       1       2       2       1       2       1       1       2       2       2
       1       1       2       1       1       2       1       1       2       1
       1       2       1       2       2       2       1       1       1       1
       1       2       1       1       1       1       1       2       2       1
       2       1       1       2       2       2       1       1       2       1
       1       2       1       1       2       1       1       2       1       2
       2       2       1       1       1       1       1       2       1       1
       1       1       1       2       2       1       2       1       1       2
       2       2       1       1       2       1       1       2       1       1
       2       1       1       2       1       2       2       2       1       1
       1       1       1       2       1       1       1       1       1       2
       2       1       2       1       1       2       2       2       1       1
       2       1       1       2       1       1       2       1       1       2
       1       2       2       2       1       1       1       1       1       2
       1       1       1       1       1       2       2       1       2       1
       1       2       2       2       1       1       2       1       1       2
       1       1       2       1       1       2       1       2       2       2
       1       1       1       1       1       2       1       1       1       1
       1       2       2       1       2       1       1       2       2       2
       1       1       2       1       1       2       1       1       2       1
       1       2       1       2       2       2       1       1       1       1
       1       2       1       1       1       1       1       2       2       1
       2       1       1       2       2       2       1       1       2       1
       1       2       1       1       2       1       1       2       1       2
       2       2       1       1       1       1       1       2       1       1
       1       1       1       2       2       1       2       1       1       2
       2       2       1       1       2       1       1       2       1       1
       2       1       1       2       1       2       2       2       1       1
       1       1       1       2       1       1       1       1       1       2
       2       1       2       1       1       2       2       2       1       1
       2       1       1       2       1       1       2       1       1       2
       1       2       2       2       1       1       1       1       1       2
       1       1       1       1       1       2       2       1       2       1
       1       2       2       2       1       1       2       1       1       2
       1       1       2       1       1       2       1       2       2       2
       1       1       1       1       1       2       1       1       1       1
       1       2       2       1       2       1       1       2       2       2
       1       1       2       1       1       2       1       1       2       1
       1       2       1       2       2       2       1       1       1       1
       1       2       1       1       1       1       1       2       2       1
       2       1       1       2       2       2       1       1       2       1
       1       2       1       1       2       1       1       2       1       2
       2       2       1       1       1       1       1       2       1       1
       1       1       1       2       2       1       2       1       1       2
       2       2       1       1       2       1       1       2       1       1
       2       1       1       2       1       2       2       2       1       1
       1       1       1       2       1       1       1       1       1       2
       2       1       2       1       1       2       2       2       1       1
       2       1       1       2       1       1       2       1       1       2
       1       2       2       2       1       1       1       1       1       2
       1       1       1       1       1       2       2       1       2       1
       1       2       2       2       1       1       2       1       1       2
       1       1       2       1       1       2       1       2       2       2
       1       1       1       1       1       2       1       1       1       1
       1       2       2       1       2       1       1       2       2       2
       1       1       2       1       1       2       1       1       2       1
       1       2       1       2       2       2       1       1       1       1
       1       2       1       1       1       1       1       2       2       1
       2       1       1       2       2       2       1       1       2       1
       1       2       1       1       2       1       1       2       1       2
       2       2       1       1       1       1       1       2       1       1
       1       1       1       2       2       1       2       1       1       2
       2       2       1       1       2       1       1       2       1       1
       2       1       1       2       1       2       2       2       1       1
       1       1       1       2       1       1       1       1       1       2
       2       1       2       1       1       2       2       2       1       1
       2       1       1       2       1       1       2       1       1       2
       1       2       2       2       1       1       1       1       1       2
       1       1       1       1       1       2       2       1       2       1
       1       2       2       2       1       1       2       1       1       2
       1       1       2       1       1       2       1       2       2       2
       1       1       1       1       1       2       1       1       1       1
       1       2       2       1       2       1       1       2       2       2
       1       1       2       1       1       2       1       1       2       1
       1       2       1       2       2       2       1       1       1       1
       1       2       1       1       1       1       1       2       2       1
       2       1       1       2       2       2       1       1       2       1
       1       2       1       1       2       1       1       2       1       2
       2       2       1       1       1       1       1       2       1       1
       1       1       1       2       2       1       2       1       1       2
       2       2       1       1       2       1       1       2       1       1
       2       1       1       2       1       2       2       2       1       1
       1       1       1       2       1       1       1       1       1       2
       2       1       2       1       1       2       2       2       1       1
       2       1       1       2       1       1       2       1       1       2
       1       2       2       2       1       1       1       1       1       2
       1       1       1       1       1       2       2       1       2       1
       1       2       2       2       1       1       2       1       1       2
       1       1       2       1       1       2       1       2       2       2
       1       1       1       1       1       2       1       1       1       1
       1       2       2       1       2       1       1       2       2       2
       1       1       2       1       1       2       1       1       2       1
       1       2       1       2       2       2       1       1       1       1
       1       2       1       1       1       1       1       2       2       1
       2       1       1       2       2       2       1       1       2       1
       1       2       1       1       2       1       1       2       1       2
       2       2       1       1       1       1       1       2       1       1
       1       1       1       2       2       1       2       1       1       2
       2       2       1       1       2       1       1       2       1       1
       2       1       1       2       1       2       2       2       1       1
       1       1       1       2       1       1       1       1       1       2
       2       1       2       1       1       2       2       2       1       1
       2       1       1       2       1       1       2       1       1       2
       1       2       2       2       1       1       1       1       1       2
       1       1       1       1       1       2       2       1       2       1
       1       2       2       2       1       1       2       1       1       2
       1       1       2       1       1       2       1       2       2       2
       1       1       1       1       1       2       1       1       1       1
       1       2       2       1       2       1       1       2       2       2
       1       1       2       1       1       2       1       1       2       1
       1       2       1       2       2       2       1       1       1       1
       1       2       1       1       1       1       1       2       2       1
       2       1       1       2       2       2       1       1       2       1
       1       2       1       1       2       1       1       2       1       2
       2       2       1       1       1       1       1       2       1       1
       1       1       1       2       2       1       2       1       1       2
       2       2       1       1       2       1       1       2       1       1
       2       1       1       2       1       2       2       2       1       1
       1       1       1       2       1       1       1       1       1       2
       2       1       2       1       1       2       2       2       1       1
       2       1       1       2       1       1       2       1       1       2
       1       2       2       2       1       1       1       1       1       2
       1       1       1       1       1       2       2       1       2       1
       1       2       2       2       1       1       2       1       1       2
       1       1       2       1       1       2       1       2       2       2
       1       1       1       1       1       2       1       1       1       1
       1       2       2       1       2       1       1       2       2       2
       1       1       2       1       1       2       1       1       2       1
       1       2       1       2       2       2       1       1       1       1
       1       2       1       1       1       1       1       2       2       1
       2       1       1       2       2       2       1       1       2       1
       1       2       1       1       2       1       1       2       1       2
       2       2       1       1       1       1       1       2       1       1
       1       1       1       2       2       1       2       1       1       2
       2       2       1       1       2       1       1       2       1       1
       2       1       1       2       1       2       2       2       1       1
       1       1       1       2       1       1       1       1       1       2
       2       1       2       1       1       2       2       2       1       1
       2       1       1       2       1       1       2       1       1       2
       1       2       2       2       1       1       1       1       1       2
       1       1       1       1       1       2       2       1       2       1
       1       2       2       2       1       1       2       1       1       2
       1       1       2       1       1       2       1       2       2       2
       1       1       1       1       1       2       1       1       1       1
       1       2       2       1       2       1       1       2       2       2
       1       1       2       1       1       2       1       1       2       1
       1       2       1       2       2       2       1       1       1       1
       1       2       1       1       1       1       1       2       2       1
       2       1       1       2       2       2       1       1       2       1
       1       2       1       1       2       1       1       2       1       2
       2       2       1       1       1       1       1       2       1       1
       1       1       1       2       2       1       2       1       1       2
       2       2       1       1       2       1       1       2       1       1
       2       1       1       2       1       2       2       2       1       1
       1       1       1       2       1       1       1       1       1       2
       2       1       2       1       1       2       2       2       1       1
       2       1       1       2       1       1       2       1       1       2
       1       2       2       2       1       1       1       1       1       2
       1       1       1       1       1       2       2       1       2       1
       1       2       2       2       1       1       2       1       1       2
       1       1       2       1       1       2       1       2       2       2
       1       1       1       1       1       2       1       1       1       1
       1       2       2       1       2       1       1       2       2       2
       1       1       2       1       1       2       1       1       2       1
       1       2       1       2       2       2       1       1       1       1
       1       2       1       1       1       1       1       2       2       1
       2       1       1       2       2       2       1       1       2       1
       1       2       1       1       2       1       1       2       1       2
       2       2       1       1       1       1       1       2       1       1
       1       1       1       2       2       1       2       1       1       2
       2       2       1       1       2       1       1       2       1       1
       2       1       1       2       1       2       2       2       1       1
       1       1       1       2       1       1       1       1       1       2
       2       1       2       1       1       2       2       2       1       1
       2       1       1       2       1       1       2       1       1       2
       1       2       2       2       1       1       1       1       1       2
       1       1       1       1       1       2       2       1       2       1
       1       2       2       2       1       1       2       1       1       2
       1       1       2       1       1       2       1       2       2       2
       1       1       1       1       1       2       1       1       1       1
       1       2       2       1       2       1       1       2       2       2
       1       1       2       1       1       2       1       1       2       1
       1       2       1       2       2       2       1       1       1       1
       1       2       1       1       1       1       1       2       2       1
       2       1       1       2       2       2       1       1       2       1
       1       2       1       1       2       1       1       2       1       2
       2       2       1       1       1       1       1       2       1       1
       1       1       1       2       2       1       2       1       1       2
       2       2       1       1       2       1       1       2       1       1
       2       1       1       2       1       2       2       2       1       1
       1       1       1       2       1       1       1       1       1       2
       2       1       2       1       1       2       2       2       1       1
       2       1       1       2       1       1       2       1       1       2
       1       2       2       2       1       1       1       1       1       2
       1       1       1       1       1       2       2       1       2       1
       1       2       2       2       1       1       2       1       1       2
       1       1       2       1       1       2       1       2       2       2
       1       1       1       1       1       2       1       1       1       1
       1       2       2       1       2       1       1       2       2       2
       1       1       2       1       1       2       1       1       2       1
       1       2       1       2       2       2       1       1       1       1
       1       2       1       1       1       1       1       2       2       1
       2       1       1       2       2       2       1       1       2       1
       1       2       1       1       2       1       1       2       1       2
       2       2       1       1       1       1       1       2       1       1
       1       1       1       2       2       1       2       1       1       2
       2       2       1       1       2       1       1       2       1       1
       2       1       1       2       1       2       2       2       1       1
       1       1       1       2       1       1       1       1       1       2
       2       1       2       1       1       2       2       2       1       1
       2       1       1       2       1       1       2       1       1       2
       1       2       2       2       1       1       1       1       1       2
       1       1       1       1       1       2       2       1       2       1
       1       2       2       2       1       1       2       1       1       2
       1       1       2       1       1       2       1       2       2       2
       1       1       1       1       1       2       1       1       1       1
       1       2       2       1       2       1       1       2       2       2
       1       1       2       1       1       2       1       1       2       1
       1       2       1       2       2       2       1       1       1       1
       1       2       1       1       1       1       1       2       2       1
       2       1       1       2       2       2       1       1       2       1
       1       2       1       1       2       1       1       2       1       2
       2       2       1       1       1       1       1       2       1       1
       1       1       1       2       2       1       2       1       1       2
       2       2       1       1       2       1       1       2       1       1
       2       1       1       2       1       2       2       2       1       1
       1       1       1       2       1       1       1       1       1       2
       2       1       2       1       1       2       2       2       1       1
       2       1       1       2       1       1       2       1       1       2
       1       2       2       2       1       1       1       1       1       2
       1       1       1       1       1       2       2       1       2       1
       1       2       2       2       1       1       2       1       1       2
       1       1       2       1       1       2       1       2       2       2
       1       1       1       1       1       2       1       1       1       1
       1       2       2       1       2       1       1       2       2       2
       1       1       2       1       1       2       1       1       2       1
       1       2       1       2       2       2       1       1       1       1
       1       2       1       1       1       1       1       2       2       1
       2       1       1       2       2       2       1       1       2       1
       1       2       1       1       2       1       1       2       1       2
       2       2       1       1       1       1       1       2       1       1
       1       1       1       2       2       1       2       1       1       2
       2       2       1       1       2       1       1       2       1       1
       2       1       1       2       1       2       2       2       1       1
       1       1       1       2       1       1       1       1       1       2
       2       1       2       1       1       2       2       2       1       1
       2       1       1       2       1       1       2       1       1       2
       1       2       2       2       1       1       1       1       1       2
       1       1       1       1       1       2       2       1       2       1
       1       2       2       2       1       1       2       1       1       2
       1       1       2       1       1       2       1       2       2       2
       1       1       1       1       1       2       1       1       1       1
       1       2       2       1       2       1       1       2       2       2
       1       1       2       1       1       2       1       1       2       1
       1       2       1       2       2       2       1       1       1       1
       1       2       1       1       1       1       1       2       2       1
       2       1       1       2       2       2       1       1       2       1
       1       2       1       1       2       1       1       2       1       2
       2       2       1       1       1       1       1       2       1       1
       1       1       1       2       2       1       2       1       1       2
       2       2       1       1       2       1       1       2       1       1
       2       1       1       2       1       2       2       2       1       1
       1       1       1       2       1       1       1       1       1       2
       2       1       2       1       1       2       2       2       1       1
       2       1       1       2       1       1       2       1       1       2
       1       2       2       2       1       1       1       1       1       2
       1       1       1       1       1       2       2       1       2       1
       1       2       2       2       1       1       2       1       1       2
       1       1       2       1       1       2       1       2       2       2
       1       1       1       1       1       2       1       1       1       1
       1       2       2       1       2       1       1       2       2       2
       1       1       2       1       1       2       1       1       2       1
       1       2       1       2       2       2       1       1       1       1
       1       2       1       1       1       1       1       2       2       1
       2       1       1       2       2       2       1       1       2       1
       1       2       1       1       2       1       1       2       1       2
       2       2       1       1       1       1       1       2       1       1
       1       1       1       2       2       1       2       1       1       2
       2       2       1       1       2       1       1       2       1       1
       2       1       1       2       1       2       2       2       1       1
       1       1       1       2       1       1       1       1       1       2
       2       1       2       1       1       2       2       2       1       1
       2       1       1       2       1       1       2       1       1       2
       1       2       2       2       1       1       1       1       1       2
       1       1       1       1       1       2       2       1       2       1
       1       2       2       2       1       1       2       1       1       2
       1       1       2       1       1       2       1       2       2       2
       1       1       1       1       1       2       1       1       1       1
       1       2       2       1       2       1       1       2       2       2
       1       1       2       1       1       2       1       1       2       1
       1       2       1       2       2       2       1       1       1       1
       1       2       1       1       1       1       1       2       2       1
       2       1       1       2       2       2       1       1       2       1
       1       2       1       1       2       1       1       2       1       2
       2       2       1       1       1       1       1       2       1       1
       1       1       1       2       2       1       2       1       1       2
       2       2       1       1       2       1       1       2       1       1
       2       1       1       2       1       2       2       2       1       1
       1       1       1       2       1       1       1       1       1       2
       2       1       2       1       1       2       2       2       1       1
       2       1       1       2       1       1       2       1       1       2
       1       2       2       2       1       1       1       1       1       2
       1       1       1       1       1       2       2       1       2       1
       1       2       2       2       1       1       2       1       1       2
       1       1       2       1       1       2       1       2       2       2
       1       1       1       1       1       2       1       1       1       1
       1       2       2       1       2       1       1       2       2       2
       1       1       2       1       1       2       1       1       2       1
       1       2       1       2       2       2       1       1       1       1
       1       2       1       1       1       1       1       2       2       1
       2       1       1       2       2       2       1       1       2       1
       1       2       1       1       2       1       1       2       1       2
       2       2       1       1       1       1       1       2       1       1
       1       1       1       2       2       1       2       1       1       2
       2       2       1       1       2       1       1       2       1       1
       2       1       1       2       1       2       2       2       1       1
       1       1       1       2       1       1       1       1       1       2
       2       1       2       1       1       2       2       2       1       1
       2       1       1       2       1       1       2       1       1       2
       1       2       2       2       1       1       1       1       1       2
       1       1       1       1       1       2       2       1       2       1
       1       2       2       2       1       1       2       1       1       2
       1       1       2       1       1       2       1       2       2       2
       1       1       1       1       1       2       1       1       1       1
       1       2       2       1       2       1       1       2       2       2
       1       1       2       1       1       2       1       1       2       1
       1       2       1       2       2       2       1       1       1       1
       1       2       1       1       1       1       1       2       2       1
       2       1       1       2       2       2       1       1       2       1
       1       2       1       1       2       1       1       2       1       2
       2       2       1       1       1       1       1       2       1       1
       1       1       1       2       2       1       2       1       1       2
       2       2       1       1       2       1       1       2       1       1
       2       1       1       2       1       2       2       2       1       1
       1       1       1       2       1       1       1       1       1       2
       2       1       2       1       1       2       2       2       1       1
       2       1       1       2       1       1       2       1       1       2
       1       2       2       2       1       1       1       1       1       2
       1       1       1       1       1       2       2       1       2       1
       1       2       2       2       1       1       2       1       1       2
       1       1       2       1       1       2       1       2       2       2
       1       1       1       1       1       2       1       1       1       1
       1       2       2       1       2       1       1       2       2       2
       1       1       2       1       1       2       1       1       2       1
       1       2       1       2       2       2       1       1       1       1
       1       2       1       1       1       1       1       2       2       1
       2       1       1       2       2       2       1       1       2       1
       1       2       1       1       2       1       1       2       1       2
       2       2       1       1       1       1       1       2       1       1
       1       1       1       2       2       1       2       1       1       2
       2       2       1       1       2       1       1       2       1       1
       2       1       1       2       1       2       2       2       1       1
       1       1       1       2       1       1       1       1       1       2
       2       1       2       1       1       2       2       2       1       1
       2       1       1       2       1       1       2       1       1       2
       1       2       2       2       1       1       1       1       1       2
       1       1       1       1       1       2       2       1       2       1
       1       2       2       2       1       1       2       1       1       2
       1       1       2       1       1       2       1       2       2       2
       1       1       1       1       1       2       1       1       1       1
       1       2       2       1       2       1       1       2       2       2
       1       1       2       1       1       2       1       1       2       1
       1       2       1       2       2       2       1       1       1       1
       1       2       1       1       1       1       1       2       2       1
       2       1       1       2       2       2       1       1       2       1
       1       2       1       1       2       1       1       2       1       2
       2       2       1       1       1       1       1       2       1       1
       1       1       1       2       2       1       2       1       1       2
       2       2       1       1       2       1       1       2       1       1
       2       1       1       2       1       2       2       2       1       1
       1       1       1       2       1       1       1       1       1       2
       2       1       2       1       1       2       2       2       1       1
       2       1       1       2       1       1       2       1       1       2
       1       2       2       2       1       1       1       1       1       2
       1       1       1       1       1       2       2       1       2       1
       1       2       2       2       1       1       2       1       1       2
       1       1       2       1       1       2       1       2       2       2
       1       1       1       1       1       2       1       1       1       1
       1       2       2       1       2       1       1       2       2       2
       1       1       2       1       1       2       1       1       2       1
       1       2       1       2       2       2       1       1       1       1
       1       2       1       1       1       1       1       2       2       1
       2       1       1       2       2       2       1       1       2       1
       1       2       1       1       2       1       1       2       1       2
       2       2       1       1       1       1       1       2       1       1
       1       1       1       2       2       1       2       1       1       2
       2       2       1       1       2       1       1       2       1       1
       2       1       1       2       1       2       2       2       1       1
       1       1       1       2       1       1       1       1       1       2
       2       1       2       1       1       2       2       2       1       1
       2       1       1       2       1       1       2       1       1       2
       1       2       2       2       1       1       1       1       1       2
       1       1       1       1       1       2       2       1       2       1
       1       2       2       2       1       1       2       1       1       2
       1       1       2       1       1       2       1       2       2       2
       1       1       1       1       1       2       1       1       1       1
       1       2       2       1       2       1       1       2       2       2
       1       1       2       1       1       2       1       1       2       1
       1       2       1       2       2       2       1       1       1       1
       1       2       1       1       1       1       1       2       2       1
       2       1       1       2       2       2       1       1       2       1
       1       2       1       1       2       1       1       2       1       2
       2       2       1       1       1       1       1       2       1       1
       1       1       1       2       2       1       2       1       1       2
       2       2       1       1       2       1       1       2       1       1
       2       1       1       2       1       2       2       2       1       1
       1       1       1       2       1       1       1       1       1       2
       2       1       2       1       1       2       2       2       1       1
       2       1       1       2       1       1       2       1       1       2
       1       2       2       2       1       1       1       1       1       2
       1       1       1       1       1       2       2       1       2       1
       1       2       2       2       1       1       2       1       1       2
       1       1       2       1       1       2       1       2       2       2
       1       1       1       1       1       2       1       1       1       1
       1       2       2       1       2       1       1       2       2       2
       1       1       2       1       1       2       1       1       2       1
       1       2       1       2       2       2       1       1       1       1
       1       2       1       1       1       1       1       2       2       1
       2       1       1       2       2       2       1       1       2       1
       1       2       1       1       2       1       1       2       1       2
       2       2       1       1       1       1       1       2       1       1
       1       1       1       2       2       1       2       1       1       2
       2       2       1       1       2       1       1       2       1       1
       2       1       1       2       1       2       2       2       1       1
       1       1       1       2       1       1       1       1       1       2
       2       1       2       1       1       2       2       2       1       1
       2       1       1       2       1       1       2       1       1       2
       1       2       2       2       1       1       1       1       1       2
       1       1       1       1       1       2       2       1       2       1
       1       2       2       2       1       1       2       1       1       2
       1       1       2       1       1       2       1       2       2       2
       1       1       1       1       1       2       1       1       1       1
       1       2       2       1       2       1       1       2       2       2
       1       1       2       1       1       2       1       1       2       1
       1       2       1       2       2       2       1       1       1       1
       1       2       1       1       1       1       1       2       2       1
       2       1       1       2       2       2       1       1       2       1
       1       2       1       1       2       1       1       2       1       2
       2       2       1       1       1       1       1       2       1       1
       1       1       1       2       2       1       2       1       1       2
       2       2       1       1       2       1       1       2       1       1
       2       1       1       2       1       2       2       2       1       1
       1       1       1       2       1       1       1       1       1       2
       2       1       2       1       1       2       2       2       1       1
       2       1       1       2       1       1       2       1       1       2
       1       2       2       2       1       1       1       1       1       2
       1       1       1       1       1       2       2       1       2       1
       1       2       2       2       1       1       2       1       1       2
       1       1       2       1       1       2       1       2       2       2
       1       1       1       1       1       2       1       1       1       1
       1       2       2       1       2       1       1       2       2       2
       1       1       2       1       1       2       1       1       2       1
       1       2       1       2       2       2       1       1       1       1
       1       2       1       1       1       1       1       2       2       1
       2       1       1       2       2       2       1       1       2       1
       1       2       1       1       2       1       1       2       1       2
       2       2       1       1       1       1       1       2       1       1
       1       1       1       2       2       1       2       1       1       2
       2       2       1       1       2       1       1       2       1       1
       2       1       1       2       1       2       2       2       1       1
       1       1       1       2       1       1       1       1       1       2
       2       1       2       1       1       2       2       2       1       1
       2       1       1       2       1       1       2       1       1       2
       1       2       2       2       1       1       1       1       1       2
       1       1       1       1       1       2       2       1       2       1
       1       2       2       2       1       1       2       1       1       2
       1       1       2       1       1       2       1       2       2       2
       1       1       1       1       1       2       1       1       1       1
       1       2       2       1       2       1       1       2       2       2
       1       1       2       1       1       2       1       1       2       1
       1       2       1       2       2       2       1       1       1       1
       1       2       1       1       1       1       1       2       2       1
       2       1       1       2       2       2       1       1       2       1
       1       2       1       1       2       1       1       2       1       2
       2       2       1       1       1       1       1       2       1       1
       1       1       1       2       2       1       2       1       1       2
       2       2       1       1       2       1       1       2       1       1
       2       1       1       2       1       2       2       2       1       1
       1       1       1       2       1       1       1       1       1       2
       2       1       2       1       1       2       2       2       1       1
       2       1       1       2       1       1       2       1       1       2
       1       2       2       2       1       1       1       1       1       2
       1       1       1       1       1       2       2       1       2       1
       1       2       2       2       1       1       2       1       1       2
       1       1       2       1       1       2       1       2       2       2
       1       1       1       1       1       2       1       1       1       1
       1       2       2       1       2       1       1       2       2       2
       1       1       2       1       1       2       1       1       2       1
       1       2       1       2       2       2       1       1       1       1
       1       2       1       1       1       1       1       2       2       1
       2       1       1       2       2       2       1       1       2       1
       1       2       1       1       2       1       1       2       1       2
       2       2       1       1       1       1       1       2       1       1
       1       1       1       2       2       1       2       1       1       2
       2       2       1       1       2       1       1       2       1       1
       2       1       1       2       1       2       2       2       1       1
       1       1       1       2       1       1       1       1       1       2
       2       1       2       1       1       2       2       2       1       1
       2       1       1       2       1       1       2       1       1       2
       1       2       2       2       1       1       1       1       1       2
       1       1       1       1       1       2       2       1       2       1
       1       2       2       2       1       1       2       1       1       2
       1       1       2       1       1       2       1       2       2       2
       1       1       1       1       1       2       1       1       1       1
       1       2       2       1       2       1       1       2       2       2
       1       1       2       1       1       2       1       1       2       1
       1       2       1       2       2       2       1       1       1       1
       1       2       1       1       1       1       1       2       2       1
       2       1       1       2       2       2       1       1       2       1
       1       2       1       1       2       1       1       2       1       2
       2       2       1       1       1       1       1       2       1       1
       1       1       1       2       2       1       2       1       1       2
       2       2       1       1       2       1       1       2       1       1
       2       1       1       2       1       2       2       2       1       1
       1       1       1       2       1       1       1       1       1       2
       2       1       2       1       1       2       2       2       1       1
       2       1       1       2       1       1       2       1       1       2
       1       2       2       2       1       1       1       1       1       2
       1       1       1       1       1       2       2       1       2       1
       1       2       2       2       1       1       2       1       1       2
       1       1       2       1       1       2       1       2       2       2
       1       1       1       1       1       2       1       1       1       1
       1       2       2       1       2       1       1       2       2       2
       1       1       2       1       1       2       1       1       2       1
       1       2       1       2       2       2       1       1       1       1
       1       2       1       1       1       1       1       2       2       1
       2       1       1       2       2       2       1       1       2       1
       1       2       1       1       2       1       1       2       1       2
       2       2       1       1       1       1       1       2       1       1
       1       1       1       2       2       1       2       1       1       2
       2       2       1       1       2       1       1       2       1       1
       2       1       1       2       1       2       2       2       1       1
       1       1       1       2       1       1       1       1       1       2
       2       1       2       1       1       2       2       2       1       1
       2       1       1       2       1       1       2       1       1       2
       1       2       2       2       1       1       1       1       1       2
       1       1       1       1       1       2       2       1       2       1
       1       2       2       2       1       1       2       1       1       2
       1       1       2       1       1       2       1       2       2       2
       1       1       1       1       1       2       1       1       1       1
       1       2       2       1       2       1       1       2       2       2
       1       1       2       1       1       2       1       1       2       1
       1       2       1       2       2       2       1       1       1       1
       1       2       1       1       1       1       1       2       2       1
       2       1       1       2       2       2       1       1       2       1
       1       2       1       1       2       1       1       2       1       2
       2       2       1       1       1       1       1       2       1       1
       1       1       1       2       2       1       2       1       1       2
       2       2       1       1       2       1       1       2       1       1
       2       1       1       2       1       2       2       2       1       1
       1       1       1       2       1       1       1       1       1       2
       2       1       2       1       1       2       2       2       1       1
       2       1       1       2       1       1       2       1       1       2
       1       2       2       2       1       1       1       1       1       2
       1       1       1       1       1       2       2       1       2       1
       1       2       2       2       1       1       2       1       1       2
       1       1       2       1       1       2       1       2       2       2
       1       1       1       1       1       2       1       1       1       1
       1       2       2       1       2       1       1       2       2       2
       1       1       2       1       1       2       1       1       2       1
       1       2       1       2       2       2       1       1       1       1
       1       2       1       1       1       1       1       2       2       1
       2       1       1       2       2       2       1       1       2       1
       1       2       1       1       2       1       1       2       1       2
       2       2       1       1       1       1       1       2       1       1
       1       1       1       2       2       1       2       1       1       2
       2       2       1       1       2       1       1       2       1       1
       2       1       1       2       1       2       2       2       1       1
       1       1       1       2       1       1       1       1       1       2
       2       1       2       1       1       2       2       2       1       1
       2       1       1       2       1       1       2       1       1       2
       1       2       2       2       1       1       1       1       1       2
       1       1       1       1       1       2       2       1       2       1
       1       2       2       2       1       1       2       1       1       2
       1       1       2       1       1       2       1       2       2       2
       1       1       1       1       1       2       1       1       1       1
       1       2       2       1       2       1       1       2       2       2
       1       1       2       1       1       2       1       1       2       1
       1       2       1       2       2       2       1       1       1       1
       1       2       1       1       1       1       1       2       2       1
       2       1       1       2       2       2       1       1       2       1
       1       2       1       1       2       1       1       2       1       2
       2       2       1       1       1       1       1       2       1       1
       1       1       1       2       2       1       2       1       1       2
       2       2       1       1       2       1       1       2       1       1
       2       1       1       2       1       2       2       2       1       1
       1       1       1       2       1       1       1       1       1       2
       2       1       2       1       1       2       2       2       1       1
       2       1       1       2       1       1       2       1       1       2
       1       2       2       2       1       1       1       1       1       2
       1       1       1       1       1       2       2       1       2       1
       1       2       2       2       1       1       2       1       1       2
       1       1       2       1       1       2       1       2       2       2
       1       1       1       1       1       2       1       1       1       1
       1       2       2       1       2       1       1       2       2       2
       1       1       2       1       1       2       1       1       2       1
       1       2       1       2       2       2       1       1       1       1
       1       2       1       1       1       1       1       2       2       1
       2       1       1       2       2       2       1       1       2       1
       1       2       1       1       2       1       1       2       1       2
       2       2       1       1       1       1       1       2       1       1
       1       1       1       2       2       1       2       1       1       2
       2       2       1       1       2       1       1       2       1       1
       2       1       1       2       1       2       2       2       1       1
       1       1       1       2       1       1       1       1       1       2
       2       1       2       1       1       2       2       2       1       1
       2       1       1       2       1       1       2       1       1       2
       1       2       2       2       1       1       1       1       1       2
       1       1       1       1       1       2       2       1       2       1
       1       2       2       2       1       1       2       1       1       2
       1       1       2       1       1       2       1       2       2       2
       1       1       1       1       1       2       1       1       1       1
       1       2       2       1       2       1       1       2       2       2
       1       1       2       1       1       2       1       1       2       1
       1       2       1       2       2       2       1       1       1       1
       1       2       1       1       1       1       1       2       2       1
       2       1       1       2       2       2       1       1       2       1
       1       2       1       1       2       1       1       2       1       2
       2       2       1       1       1       1       1       2       1       1
       1       1       1       2       2       1       2       1       1       2
       2       2       1       1       2       1       1       2       1       1
       2       1       1       2       1       2       2       2       1       1
       1       1       1       2       1       1       1       1       1       2
       2       1       2       1       1       2       2       2       1       1
       2       1       1       2       1       1       2       1       1       2
       1       2       2       2       1       1       1       1       1       2
       1       1       1       1       1       2       2       1       2       1
       1       2       2       2       1       1       2       1       1       2
       1       1       2       1       1       2       1       2       2       2
       1       1       1       1       1       2       1       1       1       1
       1       2       2       1       2       1       1       2       2       2
       1       1       2       1       1       2       1       1       2       1
       1       2       1       2       2       2       1       1       1       1
       1       2       1       1       1       1       1       2       2       1
       2       1       1       2       2       2       1       1       2       1
       1       2       1       1       2       1       1       2       1       2
       2       2       1       1       1       1       1       2       1       1
       1       1       1       2       2       1       2       1       1       2
       2       2       1       1       2       1       1       2       1       1
       2       1       1       2       1       2       2       2       1       1
       1       1       1       2       1       1       1       1       1       2
       2       1       2       1       1       2       2       2       1       1
       2       1       1       2       1       1       2       1       1       2
       1       2       2       2       1       1       1       1       1       2
       1       1       1       1       1       2       2       1       2       1
       1       2       2       2       1       1       2       1       1       2
       1       1       2       1       1       2       1       2       2       2
       1       1       1       1       1       2       1       1       1       1
       1       2       2       1       2       1       1       2       2       2
       1       1       2       1       1       2       1       1       2       1
       1       2       1       2       2       2       1       1       1       1
       1       2       1       1       1       1       1       2       2       1
       2       1       1       2       2       2       1       1       2       1
       1       2       1       1       2       1       1       2       1       2
       2       2       1       1       1       1       1       2       1       1
       1       1       1       2       2       1       2       1       1       2
       2       2       1       1       2       1       1       2       1       1
       2       1       1       2       1       2       2       2       1       1
       1       1       1       2       1       1       1       1       1       2
       2       1       2       1       1       2       2       2       1       1
       2       1       1       2       1       1       2       1       1       2
       1       2       2       2       1       1       1       1       1       2
       1       1       1       1       1       2       2       1       2       1
       1       2       2       2       1       1       2       1       1       2
       1       1       2       1       1       2       1       2       2       2
       1       1       1       1       1       2       1       1       1       1
       1       2       2       1       2       1       1       2       2       2
       1       1       2       1       1       2       1       1       2       1
       1       2       1       2       2       2       1       1       1       1
       1       2       1       1       1       1       1       2       2       1
       2       1       1       2       2       2       1       1       2       1
       1       2       1       1       2       1       1       2       1       2
       2       2       1       1       1       1       1       2       1       1
       1       1       1       2       2       1       2       1       1       2
       2       2       1       1       2       1       1       2       1       1
       2       1       1       2       1       2       2       2       1       1
       1       1       1       2       1       1       1       1       1       2
       2       1       2       1       1       2       2       2       1       1
       2       1       1       2       1       1       2       1       1       2
       1       2       2       2       1       1       1       1       1       2
       1       1       1       1       1       2       2       1       2       1
       1       2       2       2       1       1       2       1       1       2
       1       1       2       1       1       2       1       2       2       2
       1       1       1       1       1       2       1       1       1       1
       1       2       2       1       2       1       1       2       2       2
       1       1       2       1       1       2       1       1       2       1
       1       2       1       2       2       2       1       1       1       1
       1       2       1       1       1       1       1       2       2       1
       2       1       1       2       2       2       1       1       2       1
       1       2       1       1       2       1       1       2       1       2
       2       2       1       1       1       1       1       2       1       1
       1       1       1       2       2       1       2       1       1       2
       2       2       1       1       2       1       1       2       1       1
       2       1       1       2       1       2       2       2       1       1
       1       1       1       2       1       1       1       1       1       2
       2       1       2       1       1       2       2       2       1       1
       2       1       1       2       1       1       2       1       1       2
       1       2       2       2       1       1       1       1       1       2
       1       1       1       1       1       2       2       1       2       1
       1       2       2       2       1       1       2       1       1       2
       1       1       2       1       1       2       1       2       2       2
       1       1       1       1       1       2       1       1       1       1
       1       2       2       1       2       1       1       2       2       2
       1       1       2       1       1       2       1       1       2       1
       1       2       1       2       2       2       1       1       1       1
       1       2       1       1       1       1       1       2       2       1
       2       1       1       2       2       2       1       1       2       1
       1       2       1       1       2       1       1       2       1       2
       2       2       1       1       1       1       1       2       1       1
       1       1       1       2       2       1       2       1       1       2
       2       2       1       1       2       1       1       2       1       1
       2       1       1       2       1       2       2       2       1       1
       1       1       1       2       1       1       1       1       1       2
       2       1       2       1       1       2       2       2       1       1
       2       1       1       2       1       1       2       1       1       2
       1       2       2       2       1       1       1       1       1       2
       1       1       1       1       1       2       2       1       2       1
       1       2       2       2       1       1       2       1       1       2
       1       1       2       1       1       2       1       2       2       2
       1       1       1       1       1       2       1       1       1       1
       1       2       2       1       2       1       1       2       2       2
       1       1       2       1       1       2       1       1       2       1
       1       2       1       2       2       2       1       1       1       1
       1       2       1       1       1       1       1       2       2       1
       2       1       1       2       2       2       1       1       2       1
       1       2       1       1       2       1       1       2       1       2
       2       2       1       1       1       1       1       2       1       1
       1       1       1       2       2       1       2       1       1       2
       2       2       1       1       2       1       1       2       1       1
       2       1       1       2       1       2       2       2       1       1
       1       1       1       2       1       1       1       1       1       2
       2       1       2       1       1       2       2       2       1       1
       2       1       1       2       1       1       2       1       1       2
       1       2       2       2       1       1       1       1       1       2
       1       1       1       1       1       2       2       1       2       1
       1       2       2       2       1       1       2       1       1       2
       1       1       2       1       1       2       1       2       2       2
       1       1       1       1       1       2       1       1       1       1
       1       2       2       1       2       1       1       2       2       2
       1       1       2       1       1       2       1       1       2       1
       1       2       1       2       2       2       1       1       1       1
       1       2       1       1       1       1       1       2       2       1
       2       1       1       2       2       2       1       1       2       1
       1       2       1       1       2       1       1       2       1       2
       2       2       1       1       1       1       1       2       1       1
       1       1       1       2       2       1       2       1       1       2
       2       2       1       1       2       1       1       2       1       1
       2       1       1       2       1       2       2       2       1       1
       1       1       1       2       1       1       1       1       1       2
       2       1       2       1       1       2       2       2       1       1
       2       1       1       2       1       1       2       1       1       2
       1       2       2       2       1       1       1       1       1       2
       1       1       1       1       1       2       2       1       2       1
       1       2       2       2       1       1       2       1       1       2
       1       1       2       1       1       2       1       2       2       2
       1       1       1       1       1       2       1       1       1       1
       1       2       2       1       2       1       1       2       2       2
       1       1       2       1       1       2       1       1       2       1
       1       2       1       2       2       2       1       1       1       1
       1       2       1       1       1       1       1       2       2       1
       2       1       1       2       2       2       1       1       2       1
       1       2       1       1       2       1       1       2       1       2
       2       2       1       1       1       1       1       2       1       1
       1       1       1       2       2       1       2       1       1       2
       2       2       1       1       2       1       1       2       1       1
       2       1       1       2       1       2       2       2       1       1
       1       1       1       2       1       1       1       1       1       2
       2       1       2       1       1       2       2       2       1       1
       2       1       1       2       1       1       2       1       1       2
       1       2       2       2       1       1       1       1       1       2
       1       1       1       1       1       2       2       1       2       1
       1       2       2       2       1       1       2       1       1       2
       1       1       2       1       1       2       1       2       2       2
       1       1       1       1       1       2       1       1       1       1
       1       2       2       1       2       1       1       2       2       2
       1       1       2       1       1       2       1       1       2       1
       1       2       1       2       2       2       1       1       1       1
       1       2       1       1       1       1       1       2       2       1
       2       1       1       2       2       2       1       1       2       1
       1       2       1       1       2       1       1       2       1       2
       2       2       1       1       1       1       1       2       1       1
       1       1       1       2       2       1       2       1       1       2
       2       2       1       1       2       1       1       2       1       1
       2       1       1       2       1       2       2       2       1       1
       1       1       1       2       1       1       1       1       1       2
       2       1       2       1       1       2       2       2       1       1
       2       1       1       2       1       1       2       1       1       2
       1       2       2       2       1       1       1       1       1       2
       1       1       1       1       1       2       2       1       2       1
       1       2       2       2       1       1       2       1       1       2
       1       1       2       1       1       2       1       2       2       2
       1       1       1       1       1       2       1       1       1       1
       1       2       2       1       2       1       1       2       2       2
       1       1       2       1       1       2       1       1       2       1
       1       2       1       2       2       2       1       1       1       1
       1       2       1       1       1       1       1       2       2       1
       2       1       1       2       2       2       1       1       2       1
       1       2       1       1       2       1       1       2       1       2
       2       2       1       1       1       1       1       2       1       1
       1       1       1       2       2       1       2       1       1       2
       2       2       1       1       2       1       1       2       1       1
       2       1       1       2       1       2       2       2       1       1
       1       1       1       2       1       1       1       1       1       2
       2       1       2       1       1       2       2       2       1       1
       2       1       1       2       1       1       2       1       1       2
       1       2       2       2       1       1       1       1       1       2
       1       1       1       1       1       2       2       1       2       1
       1       2       2       2       1       1       2       1       1       2
       1       1       2       1       1       2       1       2       2       2
       1       1       1       1       1       2       1       1       1       1
       1       2       2       1       2       1       1       2       2       2
       1       1       2       1       1       2       1       1       2       1
       1       2       1       2       2       2       1       1       1       1
       1       2       1       1       1       1       1       2       2       1
       2       1       1       2       2       2       1       1       2       1
       1       2       1       1       2       1       1       2       1       2
       2       2       1       1       1       1       1       2       1       1
       1       1       1       2       2       1       2       1       1       2
       2       2       1       1       2       1       1       2       1       1
       2       1       1       2       1       2       2       2       1       1
       1       1       1       2       1       1       1       1       1       2
       2       1       2       1       1       2       2       2       1       1
       2       1       1       2       1       1       2       1       1       2
       1       2       2       2       1       1       1       1       1       2
       1       1       1       1       1       2       2       1       2       1
       1       2       2       2       1       1       2       1       1       2
       1       1       2       1       1       2       1       2       2       2
       1       1       1       1       1       2       1       1       1       1
       1       2       2       1       2       1       1       2       2       2
       1       1       2       1       1       2       1       1       2       1
       1       2       1       2       2       2       1       1       1       1
       1       2       1       1       1       1       1       2       2       1
       2       1       1       2       2       2       1       1       2       1
       1       2       1       1       2       1       1       2       1       2
       2       2       1       1       1       1       1       2       1       1
       1       1       1       2       2       1       2       1       1       2
       2       2       1       1       2       1       1       2       1       1
       2       1       1       2       1       2       2       2       1       1
       1       1       1       2       1       1       1       1       1       2
       2       1       2       1       1       2       2       2       1       1
       2       1       1       2       1       1       2       1       1       2
       1       2       2       2       1       1       1       1       1       2
       1       1       1       1       1       2       2       1       2       1
       1       2       2       2       1       1       2       1       1       2
       1       1       2       1       1       2       1       2       2       2
       1       1       1       1       1       2       1       1       1       1
       1       2       2       1       2       1       1       2       2       2
       1       1       2       1       1       2       1       1       2       1
       1       2       1       2       2       2       1       1       1       1
       1       2       1       1       1       1       1       2       2       1
       2       1       1       2       2       2       1       1       2       1
       1       2       1       1       2       1       1       2       1       2
       2       2       1       1       1       1       1       2       1       1
       1       1       1       2       2       1       2       1       1       2
       2       2       1       1       2       1       1       2       1       1
       2       1       1       2       1       2       2       2       1       1
       1       1       1       2       1       1       1       1       1       2
       2       1       2       1       1       2       2       2       1       1
       2       1       1       2       1       1       2       1       1       2
       1       2       2       2       1       1       1       1       1       2
       1       1       1       1       1       2       2       1       2       1
       1       2       2       2       1       1       2       1       1       2
       1       1       2       1       1       2       1       2       2       2
       1       1       1       1       1       2       1       1       1       1
       1       2       2       1       2       1       1       2       2       2
       1       1       2       1       1       2       1       1       2       1
       1       2       1       2       2       2       1       1       1       1
       1       2       1       1       1       1       1       2       2       1
       2       1       1       2       2       2       1       1       2       1
       1       2       1       1       2       1       1       2       1       2
       2       2       1       1       1       1       1       2       1       1
       1       1       1       2       2       1       2       1       1       2
       2       2       1       1       2       1       1       2       1       1
       2       1       1       2       1       2       2       2       1       1
       1       1       1       2       1       1       1       1       1       2
       2       1       2       1       1       2       2       2       1       1
       2       1       1       2       1       1       2       1       1       2
       1       2       2       2       1       1       1       1       1       2
       1       1       1       1       1       2       2       1       2       1
       1       2       2       2       1       1       2       1       1       2
       1       1       2       1       1       2       1       2       2       2
       1       1       1       1       1       2       1       1       1       1
       1       2       2       1       2       1       1       2       2       2
       1       1       2       1       1       2       1       1       2       1
       1       2       1       2       2       2       1       1       1       1
       1       2       1       1       1       1       1       2       2       1
       2       1       1       2       2       2       1       1       2       1
       1       2       1       1       2       1       1       2       1       2
       2       2       1       1       1       1       1       2       1       1
       1       1       1       2       2       1       2       1       1       2
       2       2       1       1       2       1       1       2       1       1
       2       1       1       2       1       2       2       2       1       1
       1       1       1       2       1       1       1       1       1       2
       2       1       2       1       1       2       2       2       1       1
       2       1       1       2       1       1       2       1       1       2
       1       2       2       2       1       1       1       1       1       2
       1       1       1       1       1       2       2       1       2       1
       1       2       2       2       1       1       2       1       1       2
       1       1       2       1       1       2       1       2       2       2
       1       1       1       1       1       2       1       1       1       1
       1       2       2       1       2       1       1       2       2       2
       1       1       2       1       1       2       1       1       2       1
       1       2       1       2       2       2       1       1       1       1
       1       2       1       1       1       1       1       2       2       1
       2       1       1       2       2       2       1       1       2       1
       1       2       1       1       2       1       1       2       1       2
       2       2       1       1       1       1       1       2       1       1
       1       1       1       2       2       1       2       1       1       2
       2       2       1       1       2       1       1       2       1       1
       2       1       1       2       1       2       2       2       1       1
       1       1       1       2       1       1       1       1       1       2
       2       1       2       1       1       2       2       2       1       1
       2       1       1       2       1       1       2       1       1       2
       1       2       2       2       1       1       1       1       1       2
       1       1       1       1       1       2       2       1       2       1
       1       2       2       2       1       1       2       1       1       2
       1       1       2       1       1       2       1       2       2       2
       1       1       1       1       1       2       1       1       1       1
       1       2       2       1       2       1       1       2       2       2
       1       1       2       1       1       2       1       1       2       1
       1       2       1       2       2       2       1       1       1       1
       1       2       1       1       1       1       1       2       2       1
       2       1       1       2       2       2       1       1       2       1
       1       2       1       1       2       1       1       2       1       2
       2       2       1       1       1       1       1       2       1       1
       1       1       1       2       2       1       2       1       1       2
       2       2       1       1       2       1       1       2       1       1
       2       1       1       2       1       2       2       2       1       1
       1       1       1       2       1       1       1       1       1       2
       2       1       2       1       1       2       2       2       1       1
       2       1       1       2       1       1       2       1       1       2
       1       2       2       2       1       1       1       1       1       2
       1       1       1       1       1       2       2       1       2       1
       1       2       2       2       1       1       2       1       1       2
       1       1       2       1       1       2       1       2       2       2
       1       1       1       1       1       2       1       1       1       1
       1       2       2       1       2       1       1       2       2       2
       1       1       2       1       1       2       1       1       2       1
       1       2       1       2       2       2       1       1       1       1
       1       2       1       1       1       1       1       2       2       1
       2       1       1       2       2       2       1       1       2       1
       1       2       1       1       2       1       1       2       1       2
       2       2       1       1       1       1       1       2       1       1
       1       1       1       2       2       1       2       1       1       2
       2       2       1       1       2       1       1       2       1       1
       2       1       1       2       1       2       2       2       1       1
       1       1       1       2       1       1       1       1       1       2
       2       1       2       1       1       2       2       2       1       1
       2       1       1       2       1       1       2       1       1       2
       1       2       2       2       1       1       1       1       1       2
       1       1       1       1       1       2       2       1       2       1
       1       2       2       2       1       1       2       1       1       2
       1       1       2       1       1       2       1       2       2       2
       1       1       1       1       1       2       1       1       1       1
       1       2       2       1       2       1       1       2       2       2
       1       1       2       1       1       2       1       1       2       1
       1       2       1       2       2       2       1       1       1       1
       1       2       1       1       1       1       1       2       2       1
       2       1       1       2       2       2       1       1       2       1
       1       2       1       1       2       1       1       2       1       2
       2       2       1       1       1       1       1       2       1       1
       1       1       1       2       2       1       2       1       1       2
       2       2       1       1       2       1       1       2       1       1
       2       1       1       2       1       2       2       2       1       1
       1       1       1       2       1       1       1       1       1       2
       2       1       2       1       1       2       2       2       1       1
       2       1       1       2       1       1       2       1       1       2
       1       2       2       2       1       1       1       1       1       2
       1       1       1       1       1       2       2       1       2       1
       1       2       2       2       1       1       2       1       1       2
       1       1       2       1       1       2       1       2       2       2
       1       1       1       1       1       2       1       1       1       1
       1       2       2       1       2       1       1       2       2       2
       1       1       2       1       1       2       1       1       2       1
       1       2       1       2       2       2       1       1       1       1
       1       2       1       1       1       1       1       2       2       1
       2       1       1       2       2       2       1       1       2       1
       1       2       1       1       2       1       1       2       1       2
       2       2       1       1       1       1       1       2       1       1
       1       1       1       2       2       1       2       1       1       2
       2       2       1       1       2       1       1       2       1       1
       2       1       1       2       1       2       2       2       1       1
       1       1       1       2       1       1       1       1       1       2
       2       1       2       1       1       2       2       2       1       1
       2       1       1       2       1       1       2       1       1       2
       1       2       2       2       1       1       1       1       1       2
       1       1       1       1       1       2       2       1       2       1
       1       2       2       2       1       1       2       1       1       2
       1       1       2       1       1       2       1       2       2       2
       1       1       1       1       1       2       1       1       1       1
       1       2       2       1       2       1       1       2       2       2
       1       1       2       1       1       2       1       1       2       1
       1       2       1       2       2       2       1       1       1       1
       1       2       1       1       1       1       1       2       2       1
       2       1       1       2       2       2       1       1       2       1
       1       2       1       1       2       1       1       2       1       2
       2       2       1       1       1       1       1       2       1       1
       1       1       1       2       2       1       2       1       1       2
       2       2       1       1       2       1       1       2       1       1
       2       1       1       2       1       2       2       2       1       1
       1       1       1       2       1       1       1       1       1       2
       2       1       2       1       1       2       2       2       1       1
       2       1       1       2       1       1       2       1       1       2
       1       2       2       2       1       1       1       1       1       2
       1       1       1       1       1       2       2       1       2       1
       1       2       2       2       1       1       2       1       1       2
       1       1       2       1       1       2       1       2       2       2
       1       1       1       1       1       2       1       1       1       1
       1       2       2       1       2       1       1       2       2       2
       1       1       2       1       1       2       1       1       2       1
       1       2       1       2       2       2       1       1       1       1
       1       2       1       1       1       1       1       2       2       1
       2       1       1       2       2       2       1       1       2       1
       1       2       1       1       2       1       1       2       1       2
       2       2       1       1       1       1       1       2       1       1
       1       1       1       2       2       1       2       1       1       2
       2       2       1       1       2       1       1       2       1       1
       2       1       1       2       1       2       2       2       1       1
       1       1       1       2       1       1       1       1       1       2
       2       1       2       1       1       2       2       2       1       1
       2       1       1       2       1       1       2       1       1       2
       1       2       2       2       1       1       1       1       1       2
       1       1       1       1       1       2       2       1       2       1
       1       2       2       2       1       1       2       1       1       2
       1       1       2       1       1       2       1       2       2       2
       1       1       1       1       1       2       1       1       1       1
       1       2       2       1       2       1       1       2       2       2
       1       1       2       1       1       2       1       1       2       1
       1       2       1       2       2       2       1       1       1       1
       1       2       1       1       1       1       1       2       2       1
       2       1       1       2       2       2       1       1       2       1
       1       2       1       1       2       1       1       2       1       2
       2       2       1       1       1       1       1       2       1       1
       1       1       1       2       2       1       2       1       1       2
       2       2       1       1       2       1       1       2       1       1
       2       1       1       2       1       2       2       2       1       1
       1       1       1       2       1       1       1       1       1       2
       2       1       2       1       1       2       2       2       1       1
       2       1       1       2       1       1       2       1       1       2
       1       2       2       2       1       1       1       1       1       2
       1       1       1       1       1       2       2       1       2       1
       1       2       2       2       1       1       2       1       1       2
       1       1       2       1       1       2       1       2       2       2
       1       1       1       1       1       2       1       1       1       1
       1       2       2       1       2       1       1       2       2       2
       1       1       2       1       1       2       1       1       2       1
       1       2       1       2       2       2       1       1       1       1
       1       2       1       1       1       1       1       2       2       1
       2       1       1       2       2       2       1       1       2       1
       1       2       1       1       2       1       1       2       1       2
       2       2       1       1       1       1       1       2       1       1
       1       1       1       2       2       1       2       1       1       2
       2       2       1       1       2       1       1       2       1       1
       2       1       1       2       1       2       2       2       1       1
       1       1       1       2       1       1       1       1       1       2
       2       1       2       1       1       2       2       2       1       1
       2       1       1       2       1       1       2       1       1       2
       1       2       2       2       1       1       1       1       1       2
       1       1       1       1       1       2       2       1       2       1
       1       2       2       2       1       1       2       1       1       2
       1       1       2       1       1       2       1       2       2       2
       1       1       1       1       1       2       1       1       1       1
       1       2       2       1       2       1       1       2       2       2
       1       1       2       1       1       2       1       1       2       1
       1       2       1       2       2       2       1       1       1       1
       1       2       1       1       1       1       1       2       2       1
       2       1       1       2       2       2       1       1       2       1
       1       2       1       1       2       1       1       2       1       2
       2       2       1       1       1       1       1       2       1       1
       1       1       1       2       2       1       2       1       1       2
       2       2       1       1       2       1       1       2       1       1
       2       1       1       2       1       2       2       2       1       1
       1       1       1       2       1       1       1       1       1       2
       2       1       2       1       1       2       2       2       1       1
       2       1       1       2       1       1       2       1       1       2
       1       2       2       2       1       1       1       1       1       2
       1       1       1       1       1       2       2       1       2       1
       1       2       2       2       1       1       2       1       1       2
       1       1       2       1       1       2       1       2       2       2
       1       1       1       1       1       2       1       1       1       1
       1       2       2       1       2       1       1       2       2       2
       1       1       2       1       1       2       1       1       2       1
       1       2       1       2       2       2       1       1       1       1
       1       2       1       1       1       1       1       2       2       1
       2       1       1       2       2       2       1       1       2       1
       1       2       1       1       2       1       1       2       1       2
       2       2       1       1       1       1       1       2       1       1
       1       1       1       2       2       1       2       1       1       2
       2       2       1       1       2       1       1       2       1       1
       2       1       1       2       1       2       2       2       1       1
       1       1       1       2       1       1       1       1       1       2
       2       1       2       1       1       2       2       2       1       1
       2       1       1       2       1       1       2       1       1       2
       1       2       2       2       1       1       1       1       1       2
       1       1       1       1       1       2       2       1       2       1
       1       2       2       2       1       1       2       1       1       2
       1       1       2       1       1       2       1       2       2       2
       1       1       1       1       1       2       1       1       1       1
       1       2       2       1       2       1       1       2       2       2
       1       1       2       1       1       2       1       1       2       1
       1       2       1       2       2       2       1       1       1       1
       1       2       1       1       1       1       1       2       2       1
       2       1       1       2       2       2       1       1       2       1
       1       2       1       1       2       1       1       2       1       2
       2       2       1       1       1       1       1       2       1       1
       1       1       1       2       2       1       2       1       1       2
       2       2       1       1       2       1       1       2       1       1
       2       1       1       2       1       2       2       2       1       1
       1       1       1       2       1       1       1       1       1       2
       2       1       2       1       1       2       2       2       1       1
       2       1       1       2       1       1       2       1       1       2
       1       2       2       2       1       1       1       1       1       2
       1       1       1       1       1       2       2       1       2       1
       1       2       2       2       1       1       2       1       1       2
       1       1       2       1       1       2       1       2       2       2
       1       1       1       1       1       2       1       1       1       1
       1       2       2       1       2       1       1       2       2       2
       1       1       2       1       1       2       1       1       2       1
       1       2       1       2       2       2       1       1       1       1
       1       2       1       1       1       1       1       2       2       1
       2       1       1       2       2       2       1       1       2       1
       1       2       1       1       2       1       1       2       1       2
       2       2       1       1       1       1       1       2       1       1
       1       1       1       2       2       1       2       1       1       2
       2       2       1       1       2       1       1       2       1       1
       2       1       1       2       1       2       2       2       1       1
       1       1       1       2       1       1       1       1       1       2
       2       1       2       1       1       2       2       2       1       1
       2       1       1       2       1       1       2       1       1       2
       1       2       2       2       1       1       1       1       1       2
       1       1       1       1       1       2       2       1       2       1
       1       2       2       2       1       1       2       1       1       2
       1       1       2       1       1       2       1       2       2       2
       1       1       1       1       1       2       1       1       1       1
       1       2       2       1       2       1       1       2       2       2
       1       1       2       1       1       2       1       1       2       1
       1       2       1       2       2       2       1       1       1       1
       1       2       1       1       1       1       1       2       2       1
       2       1       1       2       2       2       1       1       2       1
       1       2       1       1       2       1       1       2       1       2
       2       2       1       1       1       1       1       2       1       1
       1       1       1       2       2       1       2       1       1       2
       2       2       1       1       2       1       1       2       1       1
       2       1       1       2       1       2       2       2       1       1
       1       1       1       2       1       1       1       1       1       2
       2       1       2       1       1       2       2       2       1       1
       2       1       1       2       1       1       2       1       1       2
       1       2       2       2       1       1       1       1       1       2
       1       1       1       1       1       2       2       1       2       1
       1       2       2       2       1       1       2       1       1       2
       1       1       2       1       1       2       1       2       2       2
       1       1       1       1       1       2       1       1       1       1
       1       2       2       1       2       1       1       2       2       2
       1       1       2       1       1       2       1       1       2       1
       1       2       1       2       2       2       1       1       1       1
       1       2       1       1       1       1       1       2       2       1
       2       1       1       2       2       2       1       1       2       1
       1       2       1       1       2       1       1       2       1       2
       2       2       1       1       1       1       1       2       1       1
       1       1       1       2       2       1       2       1       1       2
       2       2       1       1       2       1       1       2       1       1
       2       1       1       2       1       2       2       2       1       1
       1       1       1       2       1       1       1       1       1       2
       2       1       2       1       1       2       2       2       1       1
       2       1       1       2       1       1       2       1       1       2
       1       2       2       2       1       1       1       1       1       2
       1       1       1       1       1       2       2       1       2       1
       1       2       2       2       1       1       2       1       1       2
       1       1       2       1       1       2       1       2       2       2
       1       1       1       1       1       2       1       1       1       1
       1       2       2       1       2       1       1       2       2       2
       1       1       2       1       1       2       1       1       2       1
       1       2       1       2       2       2       1       1       1       1
       1       2       1       1       1       1       1       2       2       1
       2       1       1       2       2       2       1       1       2       1
       1       2       1       1       2       1       1       2       1       2
       2       2       1       1       1       1       1       2       1       1
       1       1       1       2       2       1       2       1       1       2
       2       2       1       1       2       1       1       2       1       1
       2       1       1       2       1       2       2       2       1       1
       1       1       1       2       1       1       1       1       1       2
       2       1       2       1       1       2       2       2       1       1
       2       1       1       2       1       1       2       1       1       2
       1       2       2       2       1       1       1       1       1       2
       1       1       1       1       1       2       2       1       2       1
       1       2       2       2       1       1       2       1       1       2
       1       1       2       1       1       2       1       2       2       2
       1       1       1       1       1       2       1       1       1       1
       1       2       2       1       2       1       1       2       2       2
       1       1       2       1       1       2       1       1       2       1
       1       2       1       2       2       2       1       1       1       1
       1       2       1       1       1       1       1       2       2       1
       2       1       1       2       2       2       1       1       2       1
       1       2       1       1       2       1       1       2       1       2
       2       2       1       1       1       1       1       2       1       1
       1       1       1       2       2       1       2       1       1       2
       2       2       1       1       2       1       1       2       1       1
       2       1       1       2       1       2       2       2       1       1
       1       1       1       2       1       1       1       1       1       2
       2       1       2       1       1       2       2       2       1       1
       2       1       1       2       1       1       2       1       1       2
       1       2       2       2       1       1       1       1       1       2
       1       1       1       1       1       2       2       1       2       1
       1       2       2       2       1       1       2       1       1       2
       1       1       2       1       1       2       1       2       2       2
       1       1       1       1       1       2       1       1       1       1
       1       2       2       1       2       1       1       2       2       2
       1       1       2       1       1       2       1       1       2       1
       1       2       1       2       2       2       1       1       1       1
       1       2       1       1       1       1       1       2       2       1
       2       1       1       2       2       2       1       1       2       1
       1       2       1       1       2       1       1       2       1       2
       2       2       1       1       1       1       1       2       1       1
       1       1       1       2       2       1       2       1       1       2
       2       2       1       1       2       1       1       2       1       1
       2       1       1       2       1       2       2       2       1       1
       1       1       1       2       1       1       1       1       1       2
       2       1       2       1       1       2       2       2       1       1
       2       1       1       2       1       1       2       1       1       2
       1       2       2       2       1       1       1       1       1       2
       1       1       1       1       1       2       2       1       2       1
       1       2       2       2       1       1       2       1       1       2
       1       1       2       1       1       2       1       2       2       2
       1       1       1       1       1       2       1       1       1       1
       1       2       2       1       2       1       1       2       2       2
       1       1       2       1       1       2       1       1       2       1
       1       2       1       2       2       2       1       1       1       1
       1       2       1       1       1       1       1       2       2       1
       2       1       1       2       2       2       1       1       2       1
       1       2       1       1       2       1       1       2       1       2
       2       2       1       1       1       1       1       2       1       1
       1       1       1       2       2       1       2       1       1       2
       2       2       1       1       2       1       1       2       1       1
       2       1       1       2       1       2       2       2       1       1
       1       1       1       2       1       1       1       1       1       2
       2       1       2       1       1       2       2       2       1       1
       2       1       1       2       1       1       2       1       1       2
       1       2       2       2       1       1       1       1       1       2
       1       1       1       1       1       2       2       1       2       1
       1       2       2       2       1       1       2       1       1       2
       1       1       2       1       1       2       1       2       2       2
       1       1       1       1       1       2       1       1       1       1
       1       2       2       1       2       1       1       2       2       2
       1       1       2       1       1       2       1       1       2       1
       1       2       1       2       2       2       1       1       1       1
       1       2       1       1       1       1       1       2       2       1
       2       1       1       2       2       2       1       1       2       1
       1       2       1       1       2       1       1       2       1       2
       2       2       1       1       1       1       1       2       1       1
       1       1       1       2       2       1       2       1       1       2
       2       2       1       1       2       1       1       2       1       1
       2       1       1       2       1       2       2       2       1       1
       1       1       1       2       1       1       1       1       1       2
       2       1       2       1       1       2       2       2       1       1
       2       1       1       2       1       1       2       1       1       2
       1       2       2       2       1       1       1       1       1       2
       1       1       1       1       1       2       2       1       2       1
       1       2       2       2       1       1       2       1       1       2
       1       1       2       1       1       2       1       2       2       2
       1       1       1       1       1       2       1       1       1       1
       1       2       2       1       2       1       1       2       2       2
       1       1       2       1       1       2       1       1       2       1
       1       2       1       2       2       2       1       1       1       1
       1       2       1       1       1       1       1       2       2       1
       2       1       1       2       2       2       1       1       2       1
       1       2       1       1       2       1       1       2       1       2
       2       2       1       1       1       1       1       2       1       1
       1       1       1       2       2       1       2       1       1       2
       2       2       1       1       2       1       1       2       1       1
       2       1       1       2       1       2       2       2       1       1
       1       1       1       2       1       1       1       1       1       2
       2       1       2       1       1       2       2       2       1       1
       2       1       1       2       1       1       2       1       1       2
       1       2       2       2       1       1       1       1       1       2
       1       1       1       1       1       2       2       1       2       1
       1       2       2       2       1       1       2       1       1       2
       1       1       2       1       1       2       1       2       2       2
       1       1       1       1       1       2       1       1       1       1
       1       2       2       1       2       1       1       2       2       2
       1       1       2       1       1       2       1       1       2       1
       1       2       1       2       2       2       1       1       1       1
       1       2       1       1       1       1       1       2       2       1
       2       1       1       2       2       2       1       1       2       1
       1       2       1       1       2       1       1       2       1       2
       2       2       1       1       1       1       1       2       1       1
       1       1       1       2       2       1       2       1       1       2
       2       2       1       1       2       1       1       2       1       1
       2       1       1       2       1       2       2       2       1       1
       1       1       1       2       1       1       1       1       1       2
       2       1       2       1       1       2       2       2       1       1
       2       1       1       2       1       1       2       1       1       2
       1       2       2       2       1       1       1       1       1       2
       1       1       1       1       1       2       2       1       2       1
       1       2       2       2       1       1       2       1       1       2
       1       1       2       1       1       2       1       2       2       2
       1       1       1       1       1       2       1       1       1       1
       1       2       2       1       2       1       1       2       2       2
       1       1       2       1       1       2       1       1       2       1
       1       2       1       2       2       2       1       1       1       1
       1       2       1       1       1       1       1       2       2       1
       2       1       1       2       2       2       1       1       2       1
       1       2       1       1       2       1       1       2       1       2
       2       2       1       1       1       1       1       2       1       1
       1       1       1       2       2       1       2       1       1       2
       2       2       1       1       2       1       1       2       1       1
       2       1       1       2       1       2       2       2       1       1
       1       1       1       2       1       1       1       1       1       2
       2       1       2       1       1       2       2       2       1       1
       2       1       1       2       1       1       2       1       1       2
       1       2       2       2       1       1       1       1       1       2
       1       1       1       1       1       2       2       1       2       1
       1       2       2       2       1       1       2       1       1       2
       1       1       2       1       1       2       1       2       2       2
       1       1       1       1       1       2       1       1       1       1
       1       2       2       1       2       1       1       2       2       2
       1       1       2       1       1       2       1       1       2       1
       1       2       1       2       2       2       1       1       1       1
       1       2       1       1       1       1       1       2       2       1
       2       1       1       2       2       2       1       1       2       1
       1       2       1       1       2       1       1       2       1       2
       2       2       1       1       1       1       1       2       1       1
       1       1       1       2       2       1       2       1       1       2
       2       2       1       1       2       1       1       2       1       1
       2       1       1       2       1       2       2       2       1       1
       1       1       1       2       1       1       1       1       1       2
       2       1       2       1       1       2       2       2       1       1
       2       1       1       2       1       1       2       1       1       2
       1       2       2       2       1       1       1       1       1       2
       1       1       1       1       1       2       2       1       2       1
       1       2       2       2       1       1       2       1       1       2
       1       1       2       1       1       2       1       2       2       2
       1       1       1       1       1       2       1       1       1       1
       1       2       2       1       2       1       1       2       2       2
       1       1       2       1       1       2       1       1       2       1
       1       2       1       2       2       2       1       1       1       1
       1       2       1       1       1       1       1       2       2       1
       2       1       1       2       2       2       1       1       2       1
       1       2       1       1       2       1       1       2       1       2
       2       2       1       1       1       1       1       2       1       1
       1       1       1       2       2       1       2       1       1       2
       2       2       1       1       2       1       1       2       1       1
       2       1       1       2       1       2       2       2       1       1
       1       1       1       2       1       1       1       1       1       2
       2       1       2       1       1       2       2       2       1       1
       2       1       1       2       1       1       2       1       1       2
       1       2       2       2       1       1       1       1       1       2
       1       1       1       1       1       2       2       1       2       1
       1       2       2       2       1       1       2       1       1       2
       1       1       2       1       1       2       1       2       2       2
       1       1       1       1       1       2       1       1       1       1
       1       2       2       1       2       1       1       2       2       2
       1       1       2       1       1       2       1       1       2       1
       1       2       1       2       2       2       1       1       1       1
       1       2       1       1       1       1       1       2       2       1
       2       1       1       2       2       2       1       1       2       1
       1       2       1       1       2       1       1       2       1       2
       2       2       1       1       1       1       1       2       1       1
       1       1       1       2       2       1       2       1       1       2
       2       2       1       1       2       1       1       2       1       1
       2       1       1       2       1       2       2       2       1       1
       1       1       1       2       1       1       1       1       1       2
       2       1       2       1       1       2       2       2       1       1
       2       1       1       2       1       1       2       1       1       2
       1       2       2       2       1       1       1       1       1       2
       1       1       1       1       1       2       2       1       2       1
       1       2       2       2       1       1       2       1       1       2
       1       1       2       1       1       2       1       2       2       2
       1       1       1       1       1       2       1       1       1       1
       1       2       2       1       2       1       1       2       2       2
       1       1       2       1       1       2       1       1       2       1
       1       2       1       2       2       2       1       1       1       1
       1       2       1       1       1       1       1       2       2       1
       2       1       1       2       2       2       1       1       2       1
       1       2       1       1       2       1       1       2       1       2
       2       2       1       1       1       1       1       2       1       1
       1       1       1       2       2       1       2       1       1       2
       2       2       1       1       2       1       1       2       1       1
       2       1       1       2       1       2       2       2       1       1
       1       1       1       2       1       1       1       1       1       2
       2       1       2       1       1       2       2       2       1       1
       2       1       1       2       1       1       2       1       1       2
       1       2       2       2       1       1       1       1       1       2
       1       1       1       1       1       2       2       1       2       1
       1       2       2       2       1       1       2       1       1       2
       1       1       2       1       1       2       1       2       2       2
       1       1       1       1       1       2       1       1       1       1
       1       2       2       1       2       1       1       2       2       2
       1       1       2       1       1       2       1       1       2       1
       1       2       1       2       2       2       1       1       1       1
       1       2       1       1       1       1       1       2       2       1
       2       1       1       2       2       2       1       1       2       1
       1       2       1       1       2       1       1       2       1       2
       2       2       1       1       1       1       1       2       1       1
       1       1       1       2       2       1       2       1       1       2
       2       2       1       1       2       1       1       2       1       1
       2       1       1       2       1       2       2       2       1       1
       1       1       1       2       1       1       1       1       1       2
       2       1       2       1       1       2       2       2       1       1
       2       1       1       2       1       1       2       1       1       2
       1       2       2       2       1       1       1       1       1       2
       1       1       1       1       1       2       2       1       2       1
       1       2       2       2       1       1       2       1       1       2
       1       1       2       1       1       2       1       2       2       2
       1       1       1       1       1       2       1       1       1       1
       1       2       2       1       2       1       1       2       2       2
       1       1       2       1       1       2       1       1       2       1
       1       2       1       2       2       2       1       1       1       1
       1       2       1       1       1       1       1       2       2       1
       2       1       1       2       2       2       1       1       2       1
       1       2       1       1       2       1       1       2       1       2
       2       2       1       1       1       1       1       2       1       1
       1       1       1       2       2       1       2       1       1       2
       2       2       1       1       2       1       1       2       1       1
       2       1       1       2       1       2       2       2       1       1
       1       1       1       2       1       1       1       1       1       2
       2       1       2       1       1       2       2       2       1       1
       2       1       1       2       1       1       2       1       1       2
       1       2       2       2       1       1       1       1       1       2
       1       1       1       1       1       2       2       1       2       1
       1       2       2       2       1       1       2       1       1       2
       1       1       2       1       1       2       1       2       2       2
       1       1       1       1       1       2       1       1       1       1
       1       2       2       1       2       1       1       2       2       2
       1       1       2       1       1       2       1       1       2       1
       1       2       1       2       2       2       1       1       1       1
       1       2       1       1       1       1       1       2       2       1
       2       1       1       2       2       2       1       1       2       1
       1       2       1       1       2       1       1       2       1       2
       2       2       1       1       1       1       1       2       1       1
       1       1       1       2       2       1       2       1       1       2
       2       2       1       1       2       1       1       2       1       1
       2       1       1       2       1       2       2       2       1       1
       1       1       1       2       1       1       1       1       1       2
       2       1       2       1       1       2       2       2       1       1
       2       1       1       2       1       1       2       1       1       2
       1       2       2       2       1       1       1       1       1       2
       1       1       1       1       1       2       2       1       2       1
       1       2       2       2       1       1       2       1       1       2
       1       1       2       1       1       2       1       2       2       2
       1       1       1       1       1       2       1       1       1       1
       1       2       2       1       2       1       1       2       2       2
       1       1       2       1       1       2       1       1       2       1
       1       2       1       2       2       2       1       1       1       1
       1       2       1       1       1       1       1       2       2       1
       2       1       1       2       2       2       1       1       2       1
       1       2       1       1       2       1       1       2       1       2
       2       2       1       1       1       1       1       2       1       1
       1       1       1       2       2       1       2       1       1       2
       2       2       1       1       2       1       1       2       1       1
       2       1       1       2       1       2       2       2       1       1
       1       1       1       2       1       1       1       1       1       2
       2       1       2       1       1       2       2       2       1       1
       2       1       1       2       1       1       2       1       1       2
       1       2       2       2       1       1       1       1       1       2
       1       1       1       1       1       2       2       1       2       1
       1       2       2       2       1       1       2       1       1       2
       1       1       2       1       1       2       1       2       2       2
       1       1       1       1       1       2       1       1       1       1
       1       2       2       1       2       1       1       2       2       2
       1       1       2       1       1       2       1       1       2       1
       1       2       1       2       2       2       1       1       1       1
       1       2       1       1       1       1       1       2       2       1
       2       1       1       2       2       2       1       1       2       1
       1       2       1       1       2       1       1       2       1       2
       2       2       1       1       1       1       1       2       1       1
       1       1       1       2       2       1       2       1       1       2
       2       2       1       1       2       1       1       2       1       1
       2       1       1       2       1       2       2       2       1       1
       1       1       1       2       1       1       1       1       1       2
       2       1       2       1       1       2       2       2       1       1
       2       1       1       2       1       1       2       1       1       2
       1       2       2       2       1       1       1       1       1       2
       1       1       1       1       1       2       2       1       2       1
       1       2       2       2       1       1       2       1       1       2
       1       1       2       1       1       2       1       2       2       2
       1       1       1       1       1       2       1       1       1       1
       1       2       2       1       2       1       1       2       2       2
       1       1       2       1       1       2       1       1       2       1
       1       2       1       2       2       2       1       1       1       1
       1       2       1       1       1       1       1       2       2       1
       2       1       1       2       2       2       1       1       2       1
       1       2       1       1       2       1       1       2       1       2
       2       2       1       1       1       1       1       2       1       1
       1       1       1       2       2       1       2       1       1       2
       2       2       1       1       2       1       1       2       1       1
       2       1       1       2       1       2       2       2       1       1
       1       1       1       2       1       1       1       1       1       2
       2       1       2       1       1       2       2       2       1       1
       2       1       1       2       1       1       2       1       1       2
       1       2       2       2       1       1       1       1       1       2
       1       1       1       1       1       2       2       1       2       1
       1       2       2       2       1       1       2       1       1       2
       1       1       2       1       1       2       1       2       2       2
       1       1       1       1       1       2       1       1       1       1
       1       2       2       1       2       1       1       2       2       2
       1       1       2       1       1       2       1       1       2       1
       1       2       1       2       2       2       1       1       1       1
       1       2       1       1       1       1       1       2       2       1
       2       1       1       2       2       2       1       1       2       1
       1       2       1       1       2       1       1       2       1       2
       2       2       1       1       1       1       1       2       1       1
       1       1       1       2       2       1       2       1       1       2
       2       2       1       1       2       1       1       2       1       1
       2       1       1       2       1       2       2       2       1       1
       1       1       1       2       1       1       1       1       1       2
       2       1       2       1       1       2       2       2       1       1
       2       1       1       2       1       1       2       1       1       2
       1       2       2       2       1       1       1       1       1       2
       1       1       1       1       1       2       2       1       2       1
       1       2       2       2       1       1       2       1       1       2
       1       1       2       1       1       2       1       2       2       2
       1       1       1       1       1       2       1       1       1       1
       1       2       2       1       2       1       1       2       2       2
       1       1       2       1       1       2       1       1       2       1
       1       2       1       2       2       2       1       1       1       1
       1       2       1       1       1       1       1       2       2       1
       2       1       1       2       2       2       1       1       2       1
       1       2       1       1       2       1       1       2       1       2
       2       2       1       1       1       1       1       2       1       1
       1       1       1       2       2       1       2       1       1       2
       2       2       1       1       2       1       1       2       1       1
       2       1       1       2       1       2       2       2       1       1
       1       1       1       2       1       1       1       1       1       2
       2       1       2       1       1       2       2       2       1       1
       2       1       1       2       1       1       2       1       1       2
       1       2       2       2       1       1       1       1       1       2
       1       1       1       1       1       2       2       1       2       1
       1       2       2       2       1       1       2       1       1       2
       1       1       2       1       1       2       1       2       2       2
       1       1       1       1       1       2       1       1       1       1
       1       2       2       1       2       1       1       2       2       2
       1       1       2       1       1       2       1       1       2       1
       1       2       1       2       2       2       1       1       1       1
       1       2       1       1       1       1       1       2       2       1
       2       1       1       2       2       2       1       1       2       1
       1       2       1       1       2       1       1       2       1       2
       2       2       1       1       1       1       1       2       1       1
       1       1       1       2       2       1       2       1       1       2
       2       2       1       1       2       1       1       2       1       1
       2       1       1       2       1       2       2       2       1       1
       1       1       1       2       1       1       1       1       1       2
       2       1       2       1       1       2       2       2       1       1
       2       1       1       2       1       1       2       1       1       2
       1       2       2       2       1       1       1       1       1       2
       1       1       1       1       1       2       2       1       2       1
       1       2       2       2       1       1       2       1       1       2
       1       1       2       1       1       2       1       2       2       2
       1       1       1       1       1       2       1       1       1       1
       1       2       2       1       2       1       1       2       2       2
       1       1       2       1       1       2       1       1       2       1
       1       2       1       2       2       2       1       1       1       1
       1       2       1       1       1       1       1       2       2       1
       2       1       1       2       2       2       1       1       2       1
       1       2       1       1       2       1       1       2       1       2
       2       2       1       1       1       1       1       2       1       1
       1       1       1       2       2       1       2       1       1       2
       2       2       1       1       2       1       1       2       1       1
       2       1       1       2       1       2       2       2       1       1
       1       1       1       2       1       1       1       1       1       2
       2       1       2       1       1       2       2       2       1       1
       2       1       1       2       1       1       2       1       1       2
       1       2       2       2       1       1       1       1       1       2
       1       1       1       1       1       2       2       1       2       1
       1       2       2       2       1       1       2       1       1       2
       1       1       2       1       1       2       1       2       2       2
       1       1       1       1       1       2       1       1       1       1
       1       2       2       1       2       1       1       2       2       2
       1       1       2       1       1       2       1       1       2       1
       1       2       1       2       2       2       1       1       1       1
       1       2       1       1       1       1       1       2       2       1
       2       1       1       2       2       2       1       1       2       1
       1       2       1       1       2       1       1       2       1       2
       2       2       1       1       1       1       1       2       1       1
       1       1       1       2       2       1       2       1       1       2
       2       2       1       1       2       1       1       2       1       1
       2       1       1       2       1       2       2       2       1       1
       1       1       1       2       1       1       1       1       1       2
       2       1       2       1       1       2       2       2       1       1
       2       1       1       2       1       1       2       1       1       2
       1       2       2       2       1       1       1       1       1       2
       1       1       1       1       1       2       2       1       2       1
       1       2       2       2       1       1       2       1       1       2
       1       1       2       1       1       2       1       2       2       2
       1       1       1       1       1       2       1       1       1       1
       1       2       2       1       2       1       1       2       2       2
       1       1       2       1       1       2       1       1       2       1
       1       2       1       2       2       2       1       1       1       1
       1       2       1       1       1       1       1       2       2       1
       2       1       1       2       2       2       1       1       2       1
       1       2       1       1       2       1       1       2       1       2
       2       2       1       1       1       1       1       2       1       1
       1       1       1       2       2       1       2       1       1       2
       2       2       1       1       2       1       1       2       1       1
       2       1       1       2       1       2       2       2       1       1
       1       1       1       2       1       1       1       1       1       2
       2       1       2       1       1       2       2       2       1       1
       2       1       1       2       1       1       2       1       1       2
       1       2       2       2       1       1       1       1       1       2
       1       1       1       1       1       2       2       1       2       1
       1       2       2       2       1       1       2       1       1       2
       1       1       2       1       1       2       1       2       2       2
       1       1       1       1       1       2       1       1       1       1
       1       2       2       1       2       1       1       2       2       2
       1       1       2       1       1       2       1       1       2       1
       1       2       1       2       2       2       1       1       1       1
       1       2       1       1       1       1       1       2       2       1
       2       1       1       2       2       2       1       1       2       1
       1       2       1       1       2       1       1       2       1       2
       2       2       1       1       1       1       1       2       1       1
       1       1       1       2       2       1       2       1       1       2
       2       2       1       1       2       1       1       2       1       1
       2       1       1       2       1       2       2       2       1       1
       1       1       1       2       1       1       1       1       1       2
       2       1       2       1       1       2       2       2       1       1
       2       1       1       2       1       1       2       1       1       2
       1       2       2       2       1       1       1       1       1       2
       1       1       1       1       1       2       2       1       2       1
       1       2       2       2       1       1       2       1       1       2
       1       1       2       1       1       2       1       2       2       2
       1       1       1       1       1       2       1       1       1       1
       1       2       2       1       2       1       1       2       2       2
       1       1       2       1       1       2       1       1       2       1
       1       2       1       2       2       2       1       1       1       1
       1       2       1       1       1       1       1       2       2       1
       2       1       1       2       2       2       1       1       2       1
       1       2       1       1       2       1       1       2       1       2
       2       2       1       1       1       1       1       2       1       1
       1       1       1       2       2       1       2       1       1       2
       2       2       1       1       2       1       1       2       1       1
       2       1       1       2       1       2       2       2       1       1
       1       1       1       2       1       1       1       1       1       2
       2       1       2       1       1       2       2       2       1       1
       2       1       1       2       1       1       2       1       1       2
       1       2       2       2       1       1       1       1       1       2
       1       1       1       1       1       2       2       1       2       1
       1       2       2       2       1       1       2       1       1       2
       1       1       2       1       1       2       1       2       2       2
       1       1       1       1       1       2       1       1       1       1
       1       2       2       1       2       1       1       2       2       2
       1       1       2       1       1       2       1       1       2       1
       1       2       1       2       2       2       1       1       1       1
       1       2       1       1       1       1       1       2       2       1
       2       1       1       2       2       2       1       1       2       1
       1       2       1       1       2       1       1       2       1       2
       2       2       1       1       1       1       1       2       1       1
       1       1       1       2       2       1       2       1       1       2
       2       2       1       1       2       1       1       2       1       1
       2       1       1       2       1       2       2       2       1       1
       1       1       1       2       1       1       1       1       1       2
       2       1       2       1       1       2       2       2       1       1
       2       1       1       2       1       1       2       1       1       2
       1       2       2       2       1       1       1       1       1       2
       1       1       1       1       1       2       2       1       2       1
       1       2       2       2       1       1       2       1       1       2
       1       1       2       1       1       2       1       2       2       2
       1       1       1       1       1       2       1       1       1       1
       1       2       2       1       2       1       1       2       2       2
       1       1       2       1       1       2       1       1       2       1
       1       2       1       2       2       2       1       1       1       1
       1       2       1       1       1       1       1       2       2       1
       2       1       1       2       2       2       1       1       2       1
       1       2       1       1       2       1       1       2       1       2
       2       2       1       1       1       1       1       2       1       1
       1       1       1       2       2       1       2       1       1       2
       2       2       1       1       2       1       1       2       1       1
       2       1       1       2       1       2       2       2       1       1
       1       1       1       2       1       1       1       1       1       2
       2       1       2       1       1       2       2       2       1       1
       2       1       1       2       1       1       2       1       1       2
       1       2       2       2       1       1       1       1       1       2
       1       1       1       1       1       2       2       1       2       1
       1       2       2       2       1       1       2       1       1       2
       1       1       2       1       1       2       1       2       2       2
       1       1       1       1       1       2       1       1       1       1
       1       2       2       1       2       1       1       2       2       2
       1       1       2       1       1       2       1       1       2       1
       1       2       1       2       2       2       1       1       1       1
       1       2       1       1       1       1       1       2       2       1
       2       1       1       2       2       2       1       1       2       1
       1       2       1       1       2       1       1       2       1       2
       2       2       1       1       1       1       1       2       1       1
       1       1       1       2       2       1       2       1       1       2
       2       2       1       1       2       1       1       2       1       1
       2       1       1       2       1       2       2       2       1       1
       1       1       1       2       1       1       1       1       1       2
       2       1       2       1       1       2       2       2       1       1
       2       1       1       2       1       1       2       1       1       2
       1       2       2       2       1       1       1       1       1       2
       1       1       1       1       1       2       2       1       2       1
       1       2       2       2       1       1       2       1       1       2
       1       1       2       1       1       2       1       2       2       2
%FLAG NUMBER_EXCLUDED_ATOMS
%FORMAT(10I8)
      17      11      13      14       6       2       7       7      12       7
       3       1       1       5       1      11       7       2       1       1
      10       6       1      10       7       2       8       6       1       5
       5       2       3       1       1       1      17      11      13      14
       6       2       7       7      12       7       3       1       1       5
       1      11       7       2       1       1      10       6       1      10
       7       2       8       6       1       5       5       2       3       1
       1       1      17      11      13      14       6       2       7       7
      12       7       3       1       1       5       1      11       7       2
       1       1      10       6       1      10       7       2       8       6
       1       5       5       2       3       1       1       1      17      11
      13      14       6       2       7       7      12       7       3       1
       1       5       1      11       7       2       1       1      10       6
       1      10       7       2       8       6       1       5       5       2
       3       1       1       1      17      11      13      14       6       2
       7       7      12       7       3       1       1       5       1      11
       7       2       1       1      10       6       1      10       7       2
       8       6       1       5       5       2       3       1       1       1
      17      11      13      14       6       2       7       7      12       7
       3       1       1       5       1      11       7       2       1       1
      10       6       1      10       7       2       8       6       1       5
       5       2       3       1       1       1      17      11      13      14
       6       2       7       7      12       7       3       1       1       5
       1      11       7       2       1       1      10       6       1      10
       7       2       8       6       1       5       5       2       3       1
       1       1      17      11      13      14       6       2       7       7
      12       7       3       1       1       5       1      11       7       2
       1       1      10       6       1      10       7       2       8       6
       1       5       5       2       3       1       1       1      17      11
      13      14       6       2       7       7      12       7       3       1
       1       5       1      11       7       2       1       1      10       6
       1      10       7       2       8       6       1       5       5       2
       3       1       1       1      17      11      13      14       6       2
       7       7      12       7       3       1       1       5       1      11
       7       2       1       1      10       6       1      10       7       2
       8       6       1       5       5       2       3       1       1       1
      17      11      13      14       6       2       7       7      12       7
       3       1       1       5       1      11       7       2       1       1
      10       6       1      10       7       2       8       6       1       5
       5       2       3       1       1       1      17      11      13      14
       6       2       7       7      12       7       3       1       1       5
       1      11       7       2       1       1      10       6       1      10
       7       2       8       6       1       5       5       2       3       1
       1       1      17      11      13      14       6       2       7       7
      12       7       3       1       1       5       1      11       7       2
       1       1      10       6       1      10       7       2       8       6
       1       5       5       2       3       1       1       1      17      11
      13      14       6       2       7       7      12       7       3       1
       1       5       1      11       7       2       1       1      10       6
       1      10       7       2       8       6       1       5       5       2
       3       1       1       1      17      11      13      14       6       2
       7       7      12       7       3       1       1       5       1      11
       7       2       1       1      10       6       1      10       7       2
       8       6       1       5       5       2       3       1       1       1
      17      11      13      14       6       2       7       7      12       7
       3       1       1       5       1      11       7       2       1       1
      10       6       1      10       7       2       8       6       1       5
       5       2       3       1       1       1      17      11      13      14
       6       2       7       7      12       7       3       1       1       5
       1      11       7       2       1       1      10       6       1      10
       7       2       8       6       1       5       5       2       3       1
       1       1      17      11      13      14       6       2       7       7
      12       7       3       1       1       5       1      11       7       2
       1       1      10       6       1      10       7       2       8       6
       1       5       5       2       3       1       1       1      17      11
      13      14       6       2       7       7      12       7       3       1
       1       5       1      11       7       2       1       1      10       6
       1      10       7       2       8       6       1       5       5       2
       3       1       1       1      17      11      13      14       6       2
       7       7      12       7       3       1       1       5       1      11
       7       2       1       1      10       6       1      10       7       2
       8       6       1       5       5       2       3       1       1       1
      17      11      13      14       6       2       7       7      12       7
       3       1       1       5       1      11       7       2       1       1
      10       6       1      10       7       2       8       6       1       5
       5       2       3       1       1       1      17      11      13      14
       6       2       7       7      12       7       3       1       1       5
       1      11       7       2       1       1      10       6       1      10
       7       2       8       6       1       5       5       2       3       1
       1       1      17      11      13      14       6       2       7       7
      12       7       3       1       1       5       1      11       7       2
       1       1      10       6       1      10       7       2       8       6
       1       5       5       2       3       1       1       1      17      11
      13      14       6       2       7       7      12       7       3       1
       1       5       1      11       7       2       1       1      10       6
       1      10       7       2       8       6       1       5       5       2
       3       1       1       1      17      11      13      14       6       2
       7       7      12       7       3       1       1       5       1      11
       7       2       1       1      10       6       1      10       7       2
       8       6       1       5       5       2       3       1       1       1
      17      11      13      14       6       2       7       7      12       7
       3       1       1       5       1      11       7       2       1       1
      10       6       1      10       7       2       8       6       1       5
       5       2       3       1       1       1      17      11      13      14
       6       2       7       7      12       7       3       1       1       5
       1      11       7       2       1       1      10       6       1      10
       7       2       8       6       1       5       5       2       3       1
       1       1      17      11      13      14       6       2       7       7
      12       7       3       1       1       5       1      11       7       2
       1       1      10       6       1      10       7       2       8       6
       1       5       5       2       3       1       1       1      17      11
      13      14       6       2       7       7      12       7       3       1
       1       5       1      11       7       2       1       1      10       6
       1      10       7       2       8       6       1       5       5       2
       3       1       1       1      17      11      13      14       6       2
       7       7      12       7       3       1       1       5       1      11
       7       2       1       1      10       6       1      10       7       2
       8       6       1       5       5       2       3       1       1       1
      17      11      13      14       6       2       7       7      12       7
       3       1       1       5       1      11       7       2       1       1
      10       6       1      10       7       2       8       6       1       5
       5       2       3       1       1       1      17      11      13      14
       6       2       7       7      12       7       3       1       1       5
       1      11       7       2       1       1      10       6       1      10
       7       2       8       6       1       5       5       2       3       1
       1       1      17      11      13      14       6       2       7       7
      12       7       3       1       1       5       1      11       7       2
       1       1      10       6       1      10       7       2       8       6
       1       5       5       2       3       1       1       1      17      11
      13      14       6       2       7       7      12       7       3       1
       1       5       1      11       7       2       1       1      10       6
       1      10       7       2       8       6       1       5       5       2
       3       1       1       1      17      11      13      14       6       2
       7       7      12       7       3       1       1       5       1      11
       7       2       1       1      10       6       1      10       7       2
       8       6       1       5       5       2       3       1       1       1
      17      11      13      14       6       2       7       7      12       7
       3       1       1       5       1      11       7       2       1       1
      10       6       1      10       7       2       8       6       1       5
       5       2       3       1       1       1      17      11      13      14
       6       2       7       7      12       7       3       1       1       5
       1      11       7       2       1       1      10       6       1      10
       7       2       8       6       1       5       5       2       3       1
       1       1      17      11      13      14       6       2       7       7
      12       7       3       1       1       5       1      11       7       2
       1       1      10       6       1      10       7       2       8       6
       1       5       5       2       3       1       1       1      17      11
      13      14       6       2       7       7      12       7       3       1
       1       5       1      11       7       2       1       1      10       6
       1      10       7       2       8       6       1       5       5       2
       3       1       1       1      17      11      13      14       6       2
       7       7      12       7       3       1       1       5       1      11
       7       2       1       1      10       6       1      10       7       2
       8       6       1       5       5       2       3       1       1       1
      17      11      13      14       6       2       7       7      12       7
       3       1       1       5       1      11       7       2       1       1
      10       6       1      10       7       2       8       6       1       5
       5       2       3       1       1       1      17      11      13      14
       6       2       7       7      12       7       3       1       1       5
       1      11       7       2       1       1      10       6       1      10
       7       2       8       6       1       5       5       2       3       1
       1       1      17      11      13      14       6       2       7       7
      12       7       3       1       1       5       1      11       7       2
       1       1      10       6       1      10       7       2       8       6
       1       5       5       2       3       1       1       1      17      11
      13      14       6       2       7       7      12       7       3       1
       1       5       1      11       7       2       1       1      10       6
       1      10       7       2       8       6       1       5       5       2
       3       1       1       1      17      11      13      14       6       2
       7       7      12       7       3       1       1       5       1      11
       7       2       1       1      10       6       1      10       7       2
       8       6       1       5       5       2       3       1       1       1
      17      11      13      14       6       2       7       7      12       7
       3       1       1       5       1      11       7       2       1       1
      10       6       1      10       7       2       8       6       1       5
       5       2       3       1       1       1      17      11      13      14
       6       2       7       7      12       7       3       1       1       5
       1      11       7       2       1       1      10       6       1      10
       7       2       8       6       1       5       5       2       3       1
       1       1      17      11      13      14       6       2       7       7
      12       7       3       1       1       5       1      11       7       2
       1       1      10       6       1      10       7       2       8       6
       1       5       5       2       3       1       1       1      17      11
      13      14       6       2       7       7      12       7       3       1
       1       5       1      11       7       2       1       1      10       6
       1      10       7       2       8       6       1       5       5       2
       3       1       1       1      17      11      13      14       6       2
       7       7      12       7       3       1       1       5       1      11
       7       2       1       1      10       6       1      10       7       2
       8       6       1       5       5       2       3       1       1       1
      17      11      13      14       6       2       7       7      12       7
       3       1       1       5       1      11       7       2       1       1
      10       6       1      10       7       2       8       6       1       5
       5       2       3       1       1       1      17      11      13      14
       6       2       7       7      12       7       3       1       1       5
       1      11       7       2       1       1      10       6       1      10
       7       2       8       6       1       5       5       2       3       1
       1       1      17      11      13      14       6       2       7       7
      12       7       3       1       1       5       1      11       7       2
       1       1      10       6       1      10       7       2       8       6
       1       5       5       2       3       1       1       1      17      11
      13      14       6       2       7       7      12       7       3       1
       1       5       1      11       7       2       1       1      10       6
       1      10       7       2       8       6       1       5       5       2
       3       1       1       1      17      11      13      14       6       2
       7       7      12       7       3       1       1       5       1      11
       7       2       1       1      10       6       1      10       7       2
       8       6       1       5       5       2       3       1       1       1
      17      11      13      14       6       2       7       7      12       7
       3       1       1       5       1      11       7       2       1       1
      10       6       1      10       7       2       8       6       1       5
       5       2       3       1       1       1      17      11      13      14
       6       2       7       7      12       7       3       1       1       5
       1      11       7       2       1       1      10       6       1      10
       7       2       8       6       1       5       5       2       3       1
       1       1      17      11      13      14       6       2       7       7
      12       7       3       1       1       5       1      11       7       2
       1       1      10       6       1      10       7       2       8       6
       1       5       5       2       3       1       1       1      17      11
      13      14       6       2       7       7      12       7       3       1
       1       5       1      11       7       2       1       1      10       6
       1      10       7       2       8       6       1       5       5       2
       3       1       1       1      17      11      13      14       6       2
       7       7      12       7       3       1       1       5       1      11
       7       2       1       1      10       6       1      10       7       2
       8       6       1       5       5       2       3       1       1       1
      17      11      13      14       6       2       7       7      12       7
       3       1       1       5       1      11       7       2       1       1
      10       6       1      10       7       2       8       6       1       5
       5       2       3       1       1       1      17      11      13      14
       6       2       7       7      12       7       3       1       1       5
       1      11       7       2       1       1      10       6       1      10
       7       2       8       6       1       5       5       2       3       1
       1       1      17      11      13      14       6       2       7       7
      12       7       3       1       1       5       1      11       7       2
       1       1      10       6       1      10       7       2       8       6
       1       5       5       2       3       1       1       1      17      11
      13      14       6       2       7       7      12       7       3       1
       1       5       1      11       7       2       1       1      10       6
       1      10       7       2       8       6       1       5       5       2
       3       1       1       1      17      11      13      14       6       2
       7       7      12       7       3       1       1       5       1      11
       7       2       1       1      10       6       1      10       7       2
       8       6       1       5       5       2       3       1       1       1
      17      11      13      14       6       2       7       7      12       7
       3       1       1       5       1      11       7       2       1       1
      10       6       1      10       7       2       8       6       1       5
       5       2       3       1       1       1      17      11      13      14
       6       2       7       7      12       7       3       1       1       5
       1      11       7       2       1       1      10       6       1      10
       7       2       8       6       1       5       5       2       3       1
       1       1      17      11      13      14       6       2       7       7
      12       7       3       1       1       5       1      11       7       2
       1       1      10       6       1      10       7       2       8       6
       1       5       5       2       3       1       1       1      17      11
      13      14       6       2       7       7      12       7       3       1
       1       5       1      11       7       2       1       1      10       6
       1      10       7       2       8       6       1       5       5       2
       3       1       1       1      17      11      13      14       6       2
       7       7      12       7       3       1       1       5       1      11
       7       2       1       1      10       6       1      10       7       2
       8       6       1       5       5       2       3       1       1       1
      17      11      13      14       6       2       7       7      12       7
       3       1       1       5       1      11       7       2       1       1
      10       6       1      10       7       2       8       6       1       5
       5       2       3       1       1       1      17      11      13      14
       6       2       7       7      12       7       3       1       1       5
       1      11       7       2       1       1      10       6       1      10
       7       2       8       6       1       5       5       2       3       1
       1       1      17      11      13      14       6       2       7       7
      12       7       3       1       1       5       1      11       7       2
       1       1      10       6       1      10       7       2       8       6
       1       5       5       2       3       1       1       1      17      11
      13      14       6       2       7       7      12       7       3       1
       1       5       1      11       7       2       1       1      10       6
       1      10       7       2       8       6       1       5       5       2
       3       1       1       1      17      11      13      14       6       2
       7       7      12       7       3       1       1       5       1      11
       7       2       1       1      10       6       1      10       7       2
       8       6       1       5       5       2       3       1       1       1
      17      11      13      14       6       2       7       7      12       7
       3       1       1       5       1      11       7       2       1       1
      10       6       1      10       7       2       8       6       1       5
       5       2       3       1       1       1      17      11      13      14
       6       2       7       7      12       7       3       1       1       5
       1      11       7       2       1       1      10       6       1      10
       7       2       8       6       1       5       5       2       3       1
       1       1      17      11      13      14       6       2       7       7
      12       7       3       1       1       5       1      11       7       2
       1       1      10       6       1      10       7       2       8       6
       1       5       5       2       3       1       1       1      17      11
      13      14       6       2       7       7      12       7       3       1
       1       5       1      11       7       2       1       1      10       6
       1      10       7       2       8       6       1       5       5       2
       3       1       1       1      17      11      13      14       6       2
       7       7      12       7       3       1       1       5       1      11
       7       2       1       1      10       6       1      10       7       2
       8       6       1       5       5       2       3       1       1       1
      17      11      13      14       6       2       7       7      12       7
       3       1       1       5       1      11       7       2       1       1
      10       6       1      10       7       2       8       6       1       5
       5       2       3       1       1       1      17      11      13      14
       6       2       7       7      12       7       3       1       1       5
       1      11       7       2       1       1      10       6       1      10
       7       2       8       6       1       5       5       2       3       1
       1       1      17      11      13      14       6       2       7       7
      12       7       3       1       1       5       1      11       7       2
       1       1      10       6       1      10       7       2       8       6
       1       5       5       2       3       1       1       1      17      11
      13      14       6       2       7       7      12       7       3       1
       1       5       1      11       7       2       1       1      10       6
       1      10       7       2       8       6       1       5       5       2
       3       1       1       1      17      11      13      14       6       2
       7       7      12       7       3       1       1       5       1      11
       7       2       1       1      10       6       1      10       7       2
       8       6       1       5       5       2       3       1       1       1
      17      11      13      14       6       2       7       7      12       7
       3       1       1       5       1      11       7       2       1       1
      10       6       1      10       7       2       8       6       1       5
       5       2       3       1       1       1      17      11      13      14
       6       2       7       7      12       7       3       1       1       5
       1      11       7       2       1       1      10       6       1      10
       7       2       8       6       1       5       5       2       3       1
       1       1      17      11      13      14       6       2       7       7
      12       7       3       1       1       5       1      11       7       2
       1       1      10       6       1      10       7       2       8       6
       1       5       5       2       3       1       1       1      17      11
      13      14       6       2       7       7      12       7       3       1
       1       5       1      11       7       2       1       1      10       6
       1      10       7       2       8       6       1       5       5       2
       3       1       1       1      17      11      13      14       6       2
       7       7      12       7       3       1       1       5       1      11
       7       2       1       1      10       6       1      10       7       2
       8       6       1       5       5       2       3       1       1       1
      17      11      13      14       6       2       7       7      12       7
       3       1       1       5       1      11       7       2       1       1
      10       6       1      10       7       2       8       6       1       5
       5       2       3       1       1       1      17      11      13      14
       6       2       7       7      12       7       3       1       1       5
       1      11       7       2       1       1      10       6       1      10
       7       2       8       6       1       5       5       2       3       1
       1       1      17      11      13      14       6       2       7       7
      12       7       3       1       1       5       1      11       7       2
       1       1      10       6       1      10       7       2       8       6
       1       5       5       2       3       1       1       1      17      11
      13      14       6       2       7       7      12       7       3       1
       1       5       1      11       7       2       1       1      10       6
       1      10       7       2       8       6       1       5       5       2
       3       1       1       1      17      11      13      14       6       2
       7       7      12       7       3       1       1       5       1      11
       7       2       1       1      10       6       1      10       7       2
       8       6       1       5       5       2       3       1       1       1
      17      11      13      14       6       2       7       7      12       7
       3       1       1       5       1      11       7       2       1       1
      10       6       1      10       7       2       8       6       1       5
       5       2       3       1       1       1      17      11      13      14
       6       2       7       7      12       7       3       1       1       5
       1      11       7       2       1       1      10       6       1      10
       7       2       8       6       1       5       5       2       3       1
       1       1      17      11      13      14       6       2       7       7
      12       7       3       1       1       5       1      11       7       2
       1       1      10       6       1      10       7       2       8       6
       1       5       5       2       3       1       1       1      17      11
      13      14       6       2       7       7      12       7       3       1
       1       5       1      11       7       2       1       1      10       6
       1      10       7       2       8       6       1       5       5       2
       3       1       1       1      17      11      13      14       6       2
       7       7      12       7       3       1       1       5       1      11
       7       2       1       1      10       6       1      10       7       2
       8       6       1       5       5       2       3       1       1       1
      17      11      13      14       6       2       7       7      12       7
       3       1       1       5       1      11       7       2       1       1
      10       6       1      10       7       2       8       6       1       5
       5       2       3       1       1       1      17      11      13      14
       6       2       7       7      12       7       3       1       1       5
       1      11       7       2       1       1      10       6       1      10
       7       2       8       6       1       5       5       2       3       1
       1       1      17      11      13      14       6       2       7       7
      12       7       3       1       1       5       1      11       7       2
       1       1      10       6       1      10       7       2       8       6
       1       5       5       2       3       1       1       1      17      11
      13      14       6       2       7       7      12       7       3       1
       1       5       1      11       7       2       1       1      10       6
       1      10       7       2       8       6       1       5       5       2
       3       1       1       1      17      11      13      14       6       2
       7       7      12       7       3       1       1       5       1      11
       7       2       1       1      10       6       1      10       7       2
       8       6       1       5       5       2       3       1       1       1
      17      11      13      14       6       2       7       7      12       7
       3       1       1       5       1      11       7       2       1       1
      10       6       1      10       7       2       8       6       1       5
       5       2       3       1       1       1      17      11      13      14
       6       2       7       7      12       7       3       1       1       5
       1      11       7       2       1       1      10       6       1      10
       7       2       8       6       1       5       5       2       3       1
       1       1      17      11      13      14       6       2       7       7
      12       7       3       1       1       5       1      11       7       2
       1       1      10       6       1      10       7       2       8       6
       1       5       5       2       3       1       1       1      17      11
      13      14       6       2       7       7      12       7       3       1
       1       5       1      11       7       2       1       1      10       6
       1      10       7       2       8       6       1       5       5       2
       3       1       1       1      17      11      13      14       6       2
       7       7      12       7       3       1       1       5       1      11
       7       2       1       1      10       6       1      10       7       2
       8       6       1       5       5       2       3       1       1       1
      17      11      13      14       6       2       7       7      12       7
       3       1       1       5       1      11       7       2       1       1
      10       6       1      10       7       2       8       6       1       5
       5       2       3       1       1       1      17      11      13      14
       6       2       7       7      12       7       3       1       1       5
       1      11       7       2       1       1      10       6       1      10
       7       2       8       6       1       5       5       2       3       1
       1       1      17      11      13      14       6       2       7       7
      12       7       3       1       1       5       1      11       7       2
       1       1      10       6       1      10       7       2       8       6
       1       5       5       2       3       1       1       1      17      11
      13      14       6       2       7       7      12       7       3       1
       1       5       1      11       7       2       1       1      10       6
       1      10       7       2       8       6       1       5       5       2
       3       1       1       1      17      11      13      14       6       2
       7       7      12       7       3       1       1       5       1      11
       7       2       1       1      10       6       1      10       7       2
       8       6       1       5       5       2       3       1       1       1
      17      11      13      14       6       2       7       7      12       7
       3       1       1       5       1      11       7       2       1       1
      10       6       1      10       7       2       8       6       1       5
       5       2       3       1       1       1      17      11      13      14
       6       2       7       7      12       7       3       1       1       5
       1      11       7       2       1       1      10       6       1      10
       7       2       8       6       1       5       5       2       3       1
       1       1      17      11      13      14       6       2       7       7
      12       7       3       1       1       5       1      11       7       2
       1       1      10       6       1      10       7       2       8       6
       1       5       5       2       3       1       1       1      17      11
      13      14       6       2       7       7      12       7       3       1
       1       5       1      11       7       2       1       1      10       6
       1      10       7       2       8       6       1       5       5       2
       3       1       1       1      17      11      13      14       6       2
       7       7      12       7       3       1       1       5       1      11
       7       2       1       1      10       6       1      10       7       2
       8       6       1       5       5       2       3       1       1       1
      17      11      13      14       6       2       7       7      12       7
       3       1       1       5       1      11       7       2       1       1
      10       6       1      10       7       2       8       6       1       5
       5       2       3       1       1       1      17      11      13      14
       6       2       7       7      12       7       3       1       1       5
       1      11       7       2       1       1      10       6       1      10
       7       2       8       6       1       5       5       2       3       1
       1       1      17      11      13      14       6       2       7       7
      12       7       3       1       1       5       1      11       7       2
       1       1      10       6       1      10       7       2       8       6
       1       5       5       2       3       1       1       1      17      11
      13      14       6       2       7       7      12       7       3       1
       1       5       1      11       7       2       1       1      10       6
       1      10       7       2       8       6       1       5       5       2
       3       1       1       1      17      11      13      14       6       2
       7       7      12       7       3       1       1       5       1      11
       7       2       1       1      10       6       1      10       7       2
       8       6       1       5       5       2       3       1       1       1
      17      11      13      14       6       2       7       7      12       7
       3       1       1       5       1      11       7       2       1       1
      10       6       1      10       7       2       8       6       1       5
       5       2       3       1       1       1      17      11      13      14
       6       2       7       7      12       7       3       1       1       5
       1      11       7       2       1       1      10       6       1      10
       7       2       8       6       1       5       5       2       3       1
       1       1      17      11      13      14       6       2       7       7
      12       7       3       1       1       5       1      11       7       2
       1       1      10       6       1      10       7       2       8       6
       1       5       5       2       3       1       1       1      17      11
      13      14       6       2       7       7      12       7       3       1
       1       5       1      11       7       2       1       1      10       6
       1      10       7       2       8       6       1       5       5       2
       3       1       1       1      17      11      13      14       6       2
       7       7      12       7       3       1       1       5       1      11
       7       2       1       1      10       6       1      10       7       2
       8       6       1       5       5       2       3       1       1       1
      17      11      13      14       6       2       7       7      12       7
       3       1       1       5       1      11       7       2       1       1
      10       6       1      10       7       2       8       6       1       5
       5       2       3       1       1       1      17      11      13      14
       6       2       7       7      12       7       3       1       1       5
       1      11       7       2       1       1      10       6       1      10
       7       2       8       6       1       5       5       2       3       1
       1       1      17      11      13      14       6       2       7       7
      12       7       3       1       1       5       1      11       7       2
       1       1      10       6       1      10       7       2       8       6
       1       5       5       2       3       1       1       1      17      11
      13      14       6       2       7       7      12       7       3       1
       1       5       1      11       7       2       1       1      10       6
       1      10       7       2       8       6       1       5       5       2
       3       1       1       1      17      11      13      14       6       2
       7       7      12       7       3       1       1       5       1      11
       7       2       1       1      10       6       1      10       7       2
       8       6       1       5       5       2       3       1       1       1
      17      11      13      14       6       2       7       7      12       7
       3       1       1       5       1      11       7       2       1       1
      10       6       1      10       7       2       8       6       1       5
       5       2       3       1       1       1      17      11      13      14
       6       2       7       7      12       7       3       1       1       5
       1      11       7       2       1       1      10       6       1      10
       7       2       8       6       1       5       5       2       3       1
       1       1      17      11      13      14       6       2       7       7
      12       7       3       1       1       5       1      11       7       2
       1       1      10       6       1      10       7       2       8       6
       1       5       5       2       3       1       1       1      17      11
      13      14       6       2       7       7      12       7       3       1
       1       5       1      11       7       2       1       1      10       6
       1      10       7       2       8       6       1       5       5       2
       3       1       1       1      17      11      13      14       6       2
       7       7      12       7       3       1       1       5       1      11
       7       2       1       1      10       6       1      10       7       2
       8       6       1       5       5       2       3       1       1       1
      17      11      13      14       6       2       7       7      12       7
       3       1       1       5       1      11       7       2       1       1
      10       6       1      10       7       2       8       6       1       5
       5       2       3       1       1       1      17      11      13      14
       6       2       7       7      12       7       3       1       1       5
       1      11       7       2       1       1      10       6       1      10
       7       2       8       6       1       5       5       2       3       1
       1       1      17      11      13      14       6       2       7       7
      12       7       3       1       1       5       1      11       7       2
       1       1      10       6       1      10       7       2       8       6
       1       5       5       2       3       1       1       1      17      11
      13      14       6       2       7       7      12       7       3       1
       1       5       1      11       7       2       1       1      10       6
       1      10       7       2       8       6       1       5       5       2
       3       1       1       1      17      11      13      14       6       2
       7       7      12       7       3       1       1       5       1      11
       7       2       1       1      10       6       1      10       7       2
       8       6       1       5       5       2       3       1       1       1
      17      11      13      14       6       2       7       7      12       7
       3       1       1       5       1      11       7       2       1       1
      10       6       1      10       7       2       8       6       1       5
       5       2       3       1       1       1      17      11      13      14
       6       2       7       7      12       7       3       1       1       5
       1      11       7       2       1       1      10       6       1      10
       7       2       8       6       1       5       5       2       3       1
       1       1      17      11      13      14       6       2       7       7
      12       7       3       1       1       5       1      11       7       2
       1       1      10       6       1      10       7       2       8       6
       1       5       5       2       3       1       1       1      17      11
      13      14       6       2       7       7      12       7       3       1
       1       5       1      11       7       2       1       1      10       6
       1      10       7       2       8       6       1       5       5       2
       3       1       1       1      17      11      13      14       6       2
       7       7      12       7       3       1       1       5       1      11
       7       2       1       1      10       6       1      10       7       2
       8       6       1       5       5       2       3       1       1       1
      17      11      13      14       6       2       7       7      12       7
       3       1       1       5       1      11       7       2       1       1
      10       6       1      10       7       2       8       6       1       5
       5       2       3       1       1       1      17      11      13      14
       6       2       7       7      12       7       3       1       1       5
       1      11       7       2       1       1      10       6       1      10
       7       2       8       6       1       5       5       2       3       1
       1       1      17      11      13      14       6       2       7       7
      12       7       3       1       1       5       1      11       7       2
       1       1      10       6       1      10       7       2       8       6
       1       5       5       2       3       1       1       1      17      11
      13      14       6       2       7       7      12       7       3       1
       1       5       1      11       7       2       1       1      10       6
       1      10       7       2       8       6       1       5       5       2
       3       1       1       1      17      11      13      14       6       2
       7       7      12       7       3       1       1       5       1      11
       7       2       1       1      10       6       1      10       7       2
       8       6       1       5       5       2       3       1       1       1
      17      11      13      14       6       2       7       7      12       7
       3       1       1       5       1      11       7       2       1       1
      10       6       1      10       7       2       8       6       1       5
       5       2       3       1       1       1      17      11      13      14
       6       2       7       7      12       7       3       1       1       5
       1      11       7       2       1       1      10       6       1      10
       7       2       8       6       1       5       5       2       3       1
       1       1      17      11      13      14       6       2       7       7
      12       7       3       1       1       5       1      11       7       2
       1       1      10       6       1      10       7       2       8       6
       1       5       5       2       3       1       1       1      17      11
      13      14       6       2       7       7      12       7       3       1
       1       5       1      11       7       2       1       1      10       6
       1      10       7       2       8       6       1       5       5       2
       3       1       1       1      17      11      13      14       6       2
       7       7      12       7       3       1       1       5       1      11
       7       2       1       1      10       6       1      10       7       2
       8       6       1       5       5       2       3       1       1       1
      17      11      13      14       6       2       7       7      12       7
       3       1       1       5       1      11       7       2       1       1
      10       6       1      10       7       2       8       6       1       5
       5       2       3       1       1       1      17      11      13      14
       6       2       7       7      12       7       3       1       1       5
       1      11       7       2       1       1      10       6       1      10
       7       2       8       6       1       5       5       2       3       1
       1       1      17      11      13      14       6       2       7       7
      12       7       3       1       1       5       1      11       7       2
       1       1      10       6       1      10       7       2       8       6
       1       5       5       2       3       1       1       1      17      11
      13      14       6       2       7       7      12       7       3       1
       1       5       1      11       7       2       1       1      10       6
       1      10       7       2       8       6       1       5       5       2
       3       1       1       1      17      11      13      14       6       2
       7       7      12       7       3       1       1       5       1      11
       7       2       1       1      10       6       1      10       7       2
       8       6       1       5       5       2       3       1       1       1
      17      11      13      14       6       2       7       7      12       7
       3       1       1       5       1      11       7       2       1       1
      10       6       1      10       7       2       8       6       1       5
       5       2       3       1       1       1      17      11      13      14
       6       2       7       7      12       7       3       1       1       5
       1      11       7       2       1       1      10       6       1      10
       7       2       8       6       1       5       5       2       3       1
       1       1      17      11      13      14       6       2       7       7
      12       7       3       1       1       5       1      11       7       2
       1       1      10       6       1      10       7       2       8       6
       1       5       5       2       3       1       1       1      17      11
      13      14       6       2       7       7      12       7       3       1
       1       5       1      11       7       2       1       1      10       6
       1      10       7       2       8       6       1       5       5       2
       3       1       1       1      17      11      13      14       6       2
       7       7      12       7       3       1       1       5       1      11
       7       2       1       1      10       6       1      10       7       2
       8       6       1       5       5       2       3       1       1       1
      17      11      13      14       6       2       7       7      12       7
       3       1       1       5       1      11       7       2       1       1
      10       6       1      10       7       2       8       6       1       5
       5       2       3       1       1       1      17      11      13      14
       6       2       7       7      12       7       3       1       1       5
       1      11       7       2       1       1      10       6       1      10
       7       2       8       6       1       5       5       2       3       1
       1       1      17      11      13      14       6       2       7       7
      12       7       3       1       1       5       1      11       7       2
       1       1      10       6       1      10       7       2       8       6
       1       5       5       2       3       1       1       1      17      11
      13      14       6       2       7       7      12       7       3       1
       1       5       1      11       7       2       1       1      10       6
       1      10       7       2       8       6       1       5       5       2
       3       1       1       1      17      11      13      14       6       2
       7       7      12       7       3       1       1       5       1      11
       7       2       1       1      10       6       1      10       7       2
       8       6       1       5       5       2       3       1       1       1
      17      11      13      14       6       2       7       7      12       7
       3       1       1       5       1      11       7       2       1       1
      10       6       1      10       7       2       8       6       1       5
       5       2       3       1       1       1      17      11      13      14
       6       2       7       7      12       7       3       1       1       5
       1      11       7       2       1       1      10       6       1      10
       7       2       8       6       1       5       5       2       3       1
       1       1      17      11      13      14       6       2       7       7
      12       7       3       1       1       5       1      11       7       2
       1       1      10       6       1      10       7       2       8       6
       1       5       5       2       3       1       1       1      17      11
      13      14       6       2       7       7      12       7       3       1
       1       5       1      11       7       2       1       1      10       6
       1      10       7       2       8       6       1       5       5       2
       3       1       1       1      17      11      13      14       6       2
       7       7      12       7       3       1       1       5       1      11
       7       2       1       1      10       6       1      10       7       2
       8       6       1       5       5       2       3       1       1       1
      17      11      13      14       6       2       7       7      12       7
       3       1       1       5       1      11       7       2       1       1
      10       6       1      10       7       2       8       6       1       5
       5       2       3       1       1       1      17      11      13      14
       6       2       7       7      12       7       3       1       1       5
       1      11       7       2       1       1      10       6       1      10
       7       2       8       6       1       5       5       2       3       1
       1       1      17      11      13      14       6       2       7       7
      12       7       3       1       1       5       1      11       7       2
       1       1      10       6       1      10       7       2       8       6
       1       5       5       2       3       1       1       1      17      11
      13      14       6       2       7       7      12       7       3       1
       1       5       1      11       7       2       1       1      10       6
       1      10       7       2       8       6       1       5       5       2
       3       1       1       1      17      11      13      14       6       2
       7       7      12       7       3       1       1       5       1      11
       7       2       1       1      10       6       1      10       7       2
       8       6       1       5       5       2       3       1       1       1
      17      11      13      14       6       2       7       7      12       7
       3       1       1       5       1      11       7       2       1       1
      10       6       1      10       7       2       8       6       1       5
       5       2       3       1       1       1      17      11      13      14
       6       2       7       7      12       7       3       1       1       5
       1      11       7       2       1       1      10       6       1      10
       7       2       8       6       1       5       5       2       3       1
       1       1      17      11      13      14       6       2       7       7
      12       7       3       1       1       5       1      11       7       2
       1       1      10       6       1      10       7       2       8       6
       1       5       5       2       3       1       1       1      17      11
      13      14       6       2       7       7      12       7       3       1
       1       5       1      11       7       2       1       1      10       6
       1      10       7       2       8       6       1       5       5       2
       3       1       1       1      17      11      13      14       6       2
       7       7      12       7       3       1       1       5       1      11
       7       2       1       1      10       6       1      10       7       2
       8       6       1       5       5       2       3       1       1       1
      17      11      13      14       6       2       7       7      12       7
       3       1       1       5       1      11       7       2       1       1
      10       6       1      10       7       2       8       6       1       5
       5       2       3       1       1       1      17      11      13      14
       6       2       7       7      12       7       3       1       1       5
       1      11       7       2       1       1      10       6       1      10
       7       2       8       6       1       5       5       2       3       1
       1       1      17      11      13      14       6       2       7       7
      12       7       3       1       1       5       1      11       7       2
       1       1      10       6       1      10       7       2       8       6
       1       5       5       2       3       1       1       1      17      11
      13      14       6       2       7       7      12       7       3       1
       1       5       1      11       7       2       1       1      10       6
       1      10       7       2       8       6       1       5       5       2
       3       1       1       1      17      11      13      14       6       2
       7       7      12       7       3       1       1       5       1      11
       7       2       1       1      10       6       1      10       7       2
       8       6       1       5       5       2       3       1       1       1
      17      11      13      14       6       2       7       7      12       7
       3       1       1       5       1      11       7       2       1       1
      10       6       1      10       7       2       8       6       1       5
       5       2       3       1       1       1      17      11      13      14
       6       2       7       7      12       7       3       1       1       5
       1      11       7       2       1       1      10       6       1      10
       7       2       8       6       1       5       5       2       3       1
       1       1      17      11      13      14       6       2       7       7
      12       7       3       1       1       5       1      11       7       2
       1       1      10       6       1      10       7       2       8       6
       1       5       5       2       3       1       1       1      17      11
      13      14       6       2       7       7      12       7       3       1
       1       5       1      11       7       2       1       1      10       6
       1      10       7       2       8       6       1       5       5       2
       3       1       1       1      17      11      13      14       6       2
       7       7      12       7       3       1       1       5       1      11
       7       2       1       1      10       6       1      10       7       2
       8       6       1       5       5       2       3       1       1       1
      17      11      13      14       6       2       7       7      12       7
       3       1       1       5       1      11       7       2       1       1
      10       6       1      10       7       2       8       6       1       5
       5       2       3       1       1       1      17      11      13      14
       6       2       7       7      12       7       3       1       1       5
       1      11       7       2       1       1      10       6       1      10
       7       2       8       6       1       5       5       2       3       1
       1       1      17      11      13      14       6       2       7       7
      12       7       3       1       1       5       1      11       7       2
       1       1      10       6       1      10       7       2       8       6
       1       5       5       2       3       1       1       1      17      11
      13      14       6       2       7       7      12       7       3       1
       1       5       1      11       7       2       1       1      10       6
       1      10       7       2       8       6       1       5       5       2
       3       1       1       1      17      11      13      14       6       2
       7       7      12       7       3       1       1       5       1      11
       7       2       1       1      10       6       1      10       7       2
       8       6       1       5       5       2       3       1       1       1
      17      11      13      14       6       2       7       7      12       7
       3       1       1       5       1      11       7       2       1       1
      10       6       1      10       7       2       8       6       1       5
       5       2       3       1       1       1      17      11      13      14
       6       2       7       7      12       7       3       1       1       5
       1      11       7       2       1       1      10       6       1      10
       7       2       8       6       1       5       5       2       3       1
       1       1      17      11      13      14       6       2       7       7
      12       7       3       1       1       5       1      11       7       2
       1       1      10       6       1      10       7       2       8       6
       1       5       5       2       3       1       1       1      17      11
      13      14       6       2       7       7      12       7       3       1
       1       5       1      11       7       2       1       1      10       6
       1      10       7       2       8       6       1       5       5       2
       3       1       1       1      17      11      13      14       6       2
       7       7      12       7       3       1       1       5       1      11
       7       2       1       1      10       6       1      10       7       2
       8       6       1       5       5       2       3       1       1       1
      17      11      13      14       6       2       7       7      12       7
       3       1       1       5       1      11       7       2       1       1
      10       6       1      10       7       2       8       6       1       5
       5       2       3       1       1       1      17      11      13      14
       6       2       7       7      12       7       3       1       1       5
       1      11       7       2       1       1      10       6       1      10
       7       2       8       6       1       5       5       2       3       1
       1       1      17      11      13      14       6       2       7       7
      12       7       3       1       1       5       1      11       7       2
       1       1      10       6       1      10       7       2       8       6
       1       5       5       2       3       1       1       1      17      11
      13      14       6       2       7       7      12       7       3       1
       1       5       1      11       7       2       1       1      10       6
       1      10       7       2       8       6       1       5       5       2
       3       1       1       1      17      11      13      14       6       2
       7       7      12       7       3       1       1       5       1      11
       7       2       1       1      10       6       1      10       7       2
       8       6       1       5       5       2       3       1       1       1
      17      11      13      14       6       2       7       7      12       7
       3       1       1       5       1      11       7       2       1       1
      10       6       1      10       7       2       8       6       1       5
       5       2       3       1       1       1      17      11      13      14
       6       2       7       7      12       7       3       1       1       5
       1      11       7       2       1       1      10       6       1      10
       7       2       8       6       1       5       5       2       3       1
       1       1      17      11      13      14       6       2       7       7
      12       7       3       1       1       5       1      11       7       2
       1       1      10       6       1      10       7       2       8       6
       1       5       5       2       3       1       1       1      17      11
      13      14       6       2       7       7      12       7       3       1
       1       5       1      11       7       2       1       1      10       6
       1      10       7       2       8       6       1       5       5       2
       3       1       1       1      17      11      13      14       6       2
       7       7      12       7       3       1       1       5       1      11
       7       2       1       1      10       6       1      10       7       2
       8       6       1       5       5       2       3       1       1       1
      17      11      13      14       6       2       7       7      12       7
       3       1       1       5       1      11       7       2       1       1
      10       6       1      10       7       2       8       6       1       5
       5       2       3       1       1       1      17      11      13      14
       6       2       7       7      12       7       3       1       1       5
       1      11       7       2       1       1      10       6       1      10
       7       2       8       6       1       5       5       2       3       1
       1       1      17      11      13      14       6       2       7       7
      12       7       3       1       1       5       1      11       7       2
       1       1      10       6       1      10       7       2       8       6
       1       5       5       2       3       1       1       1      17      11
      13      14       6       2       7       7      12       7       3       1
       1       5       1      11       7       2       1       1      10       6
       1      10       7       2       8       6       1       5       5       2
       3       1       1       1      17      11      13      14       6       2
       7       7      12       7       3       1       1       5       1      11
       7       2       1       1      10       6       1      10       7       2
       8       6       1       5       5       2       3       1       1       1
      17      11      13      14       6       2       7       7      12       7
       3       1       1       5       1      11       7       2       1       1
      10       6       1      10       7       2       8       6       1       5
       5       2       3       1       1       1      17      11      13      14
       6       2       7       7      12       7       3       1       1       5
       1      11       7       2       1       1      10       6       1      10
       7       2       8       6       1       5       5       2       3       1
       1       1      17      11      13      14       6       2       7       7
      12       7       3       1       1       5       1      11       7       2
       1       1      10       6       1      10       7       2       8       6
       1       5       5       2       3       1       1       1      17      11
      13      14       6       2       7       7      12       7       3       1
       1       5       1      11       7       2       1       1      10       6
       1      10       7       2       8       6       1       5       5       2
       3       1       1       1      17      11      13      14       6       2
       7       7      12       7       3       1       1       5       1      11
       7       2       1       1      10       6       1      10       7       2
       8       6       1       5       5       2       3       1       1       1
      17      11      13      14       6       2       7       7      12       7
       3       1       1       5       1      11       7       2       1       1
      10       6       1      10       7       2       8       6       1       5
       5       2       3       1       1       1      17      11      13      14
       6       2       7       7      12       7       3       1       1       5
       1      11       7       2       1       1      10       6       1      10
       7       2       8       6       1       5       5       2       3       1
       1       1      17      11      13      14       6       2       7       7
      12       7       3       1       1       5       1      11       7       2
       1       1      10       6       1      10       7       2       8       6
       1       5       5       2       3       1       1       1      17      11
      13      14       6       2       7       7      12       7       3       1
       1       5       1      11       7       2       1       1      10       6
       1      10       7       2       8       6       1       5       5       2
       3       1       1       1      17      11      13      14       6       2
       7       7      12       7       3       1       1       5       1      11
       7       2       1       1      10       6       1      10       7       2
       8       6       1       5       5       2       3       1       1       1
      17      11      13      14       6       2       7       7      12       7
       3       1       1       5       1      11       7       2       1       1
      10       6       1      10       7       2       8       6       1       5
       5       2       3       1       1       1      17      11      13      14
       6       2       7       7      12       7       3       1       1       5
       1      11       7       2       1       1      10       6       1      10
       7       2       8       6       1       5       5       2       3       1
       1       1      17      11      13      14       6       2       7       7
      12       7       3       1       1       5       1      11       7       2
       1       1      10       6       1      10       7       2       8       6
       1       5       5       2       3       1       1       1      17      11
      13      14       6       2       7       7      12       7       3       1
       1       5       1      11       7       2       1       1      10       6
       1      10       7       2       8       6       1       5       5       2
       3       1       1       1      17      11      13      14       6       2
       7       7      12       7       3       1       1       5       1      11
       7       2       1       1      10       6       1      10       7       2
       8       6       1       5       5       2       3       1       1       1
      17      11      13      14       6       2       7       7      12       7
       3       1       1       5       1      11       7       2       1       1
      10       6       1      10       7       2       8       6       1       5
       5       2       3       1       1       1      17      11      13      14
       6       2       7       7      12       7       3       1       1       5
       1      11       7       2       1       1      10       6       1      10
       7       2       8       6       1       5       5       2       3       1
       1       1      17      11      13      14       6       2       7       7
      12       7       3       1       1       5       1      11       7       2
       1       1      10       6       1      10       7       2       8       6
       1       5       5       2       3       1       1       1      17      11
      13      14       6       2       7       7      12       7       3       1
       1       5       1      11       7       2       1       1      10       6
       1      10       7       2       8       6       1       5       5       2
       3       1       1       1      17      11      13      14       6       2
       7       7      12       7       3       1       1       5       1      11
       7       2       1       1      10       6       1      10       7       2
       8       6       1       5       5       2       3       1       1       1
      17      11      13      14       6       2       7       7      12       7
       3       1       1       5       1      11       7       2       1       1
      10       6       1      10       7       2       8       6       1       5
       5       2       3       1       1       1      17      11      13      14
       6       2       7       7      12       7       3       1       1       5
       1      11       7       2       1       1      10       6       1      10
       7       2       8       6       1       5       5       2       3       1
       1       1      17      11      13      14       6       2       7       7
      12       7       3       1       1       5       1      11       7       2
       1       1      10       6       1      10       7       2       8       6
       1       5       5       2       3       1       1       1      17      11
      13      14       6       2       7       7      12       7       3       1
       1       5       1      11       7       2       1       1      10       6
       1      10       7       2       8       6       1       5       5       2
       3       1       1       1      17      11      13      14       6       2
       7       7      12       7       3       1       1       5       1      11
       7       2       1       1      10       6       1      10       7       2
       8       6       1       5       5       2       3       1       1       1
      17      11      13      14       6       2       7       7      12       7
       3       1       1       5       1      11       7       2       1       1
      10       6       1      10       7       2       8       6       1       5
       5       2       3       1       1       1      17      11      13      14
       6       2       7       7      12       7       3       1       1       5
       1      11       7       2       1       1      10       6       1      10
       7       2       8       6       1       5       5       2       3       1
       1       1      17      11      13      14       6       2       7       7
      12       7       3       1       1       5       1      11       7       2
       1       1      10       6       1      10       7       2       8       6
       1       5       5       2       3       1       1       1      17      11
      13      14       6       2       7       7      12       7       3       1
       1       5       1      11       7       2       1       1      10       6
       1      10       7       2       8       6       1       5       5       2
       3       1       1       1      17      11      13      14       6       2
       7       7      12       7       3       1       1       5       1      11
       7       2       1       1      10       6       1      10       7       2
       8       6       1       5       5       2       3       1       1       1
      17      11      13      14       6       2       7       7      12       7
       3       1       1       5       1      11       7       2       1       1
      10       6       1      10       7       2       8       6       1       5
       5       2       3       1       1       1      17      11      13      14
       6       2       7       7      12       7       3       1       1       5
       1      11       7       2       1       1      10       6       1      10
       7       2       8       6       1       5       5       2       3       1
       1       1      17      11      13      14       6       2       7       7
      12       7       3       1       1       5       1      11       7       2
       1       1      10       6       1      10       7       2       8       6
       1       5       5       2       3       1       1       1      17      11
      13      14       6       2       7       7      12       7       3       1
       1       5       1      11       7       2       1       1      10       6
       1      10       7       2       8       6       1       5       5       2
       3       1       1       1      17      11      13      14       6       2
       7       7      12       7       3       1       1       5       1      11
       7       2       1       1      10       6       1      10       7       2
       8       6       1       5       5       2       3       1       1       1
      17      11      13      14       6       2       7       7      12       7
       3       1       1       5       1      11       7       2       1       1
      10       6       1      10       7       2       8       6       1       5
       5       2       3       1       1       1      17      11      13      14
       6       2       7       7      12       7       3       1       1       5
       1      11       7       2       1       1      10       6       1      10
       7       2       8       6       1       5       5       2       3       1
       1       1      17      11      13      14       6       2       7       7
      12       7       3       1       1       5       1      11       7       2
       1       1      10       6       1      10       7       2       8       6
       1       5       5       2       3       1       1       1      17      11
      13      14       6       2       7       7      12       7       3       1
       1       5       1      11       7       2       1       1      10       6
       1      10       7       2       8       6       1       5       5       2
       3       1       1       1      17      11      13      14       6       2
       7       7      12       7       3       1       1       5       1      11
       7       2       1       1      10       6       1      10       7       2
       8       6       1       5       5       2       3       1       1       1
      17      11      13      14       6       2       7       7      12       7
       3       1       1       5       1      11       7       2       1       1
      10       6       1      10       7       2       8       6       1       5
       5       2       3       1       1       1      17      11      13      14
       6       2       7       7      12       7       3       1       1       5
       1      11       7       2       1       1      10       6       1      10
       7       2       8       6       1       5       5       2       3       1
       1       1      17      11      13      14       6       2       7       7
      12       7       3       1       1       5       1      11       7       2
       1       1      10       6       1      10       7       2       8       6
       1       5       5       2       3       1       1       1      17      11
      13      14       6       2       7       7      12       7       3       1
       1       5       1      11       7       2       1       1      10       6
       1      10       7       2       8       6       1       5       5       2
       3       1       1       1      17      11      13      14       6       2
       7       7      12       7       3       1       1       5       1      11
       7       2       1       1      10       6       1      10       7       2
       8       6       1       5       5       2       3       1       1       1
      17      11      13      14       6       2       7       7      12       7
       3       1       1       5       1      11       7       2       1       1
      10       6       1      10       7       2       8       6       1       5
       5       2       3       1       1       1      17      11      13      14
       6       2       7       7      12       7       3       1       1       5
       1      11       7       2       1       1      10       6       1      10
       7       2       8       6       1       5       5       2       3       1
       1       1      17      11      13      14       6       2       7       7
      12       7       3       1       1       5       1      11       7       2
       1       1      10       6       1      10       7       2       8       6
       1       5       5       2       3       1       1       1      17      11
      13      14       6       2       7       7      12       7       3       1
       1       5       1      11       7       2       1       1      10       6
       1      10       7       2       8       6       1       5       5       2
       3       1       1       1      17      11      13      14       6       2
       7       7      12       7       3       1       1       5       1      11
       7       2       1       1      10       6       1      10       7       2
       8       6       1       5       5       2       3       1       1       1
      17      11      13      14       6       2       7       7      12       7
       3       1       1       5       1      11       7       2       1       1
      10       6       1      10       7       2       8       6       1       5
       5       2       3       1       1       1      17      11      13      14
       6       2       7       7      12       7       3       1       1       5
       1      11       7       2       1       1      10       6       1      10
       7       2       8       6       1       5       5       2       3       1
       1       1      17      11      13      14       6       2       7       7
      12       7       3       1       1       5       1      11       7       2
       1       1      10       6       1      10       7       2       8       6
       1       5       5       2       3       1       1       1      17      11
      13      14       6       2       7       7      12       7       3       1
       1       5       1      11       7       2       1       1      10       6
       1      10       7       2       8       6       1       5       5       2
       3       1       1       1      17      11      13      14       6       2
       7       7      12       7       3       1       1       5       1      11
       7       2       1       1      10       6       1      10       7       2
       8       6       1       5       5       2       3       1       1       1
      17      11      13      14       6       2       7       7      12       7
       3       1       1       5       1      11       7       2       1       1
      10       6       1      10       7       2       8       6       1       5
       5       2       3       1       1       1      17      11      13      14
       6       2       7       7      12       7       3       1       1       5
       1      11       7       2       1       1      10       6       1      10
       7       2       8       6       1       5       5       2       3       1
       1       1      17      11      13      14       6       2       7       7
      12       7       3       1       1       5       1      11       7       2
       1       1      10       6       1      10       7       2       8       6
       1       5       5       2       3       1       1       1      17      11
      13      14       6       2       7       7      12       7       3       1
       1       5       1      11       7       2       1       1      10       6
       1      10       7       2       8       6       1       5       5       2
       3       1       1       1      17      11      13      14       6       2
       7       7      12       7       3       1       1       5       1      11
       7       2       1       1      10       6       1      10       7       2
       8       6       1       5       5       2       3       1       1       1
      17      11      13      14       6       2       7       7      12       7
       3       1       1       5       1      11       7       2       1       1
      10       6       1      10       7       2       8       6       1       5
       5       2       3       1       1       1      17      11      13      14
       6       2       7       7      12       7       3       1       1       5
       1      11       7       2       1       1      10       6       1      10
       7       2       8       6       1       5       5       2       3       1
       1       1      17      11      13      14       6       2       7       7
      12       7       3       1       1       5       1      11       7       2
       1       1      10       6       1      10       7       2       8       6
       1       5       5       2       3       1       1       1      17      11
      13      14       6       2       7       7      12       7       3       1
       1       5       1      11       7       2       1       1      10       6
       1      10       7       2       8       6       1       5       5       2
       3       1       1       1      17      11      13      14       6       2
       7       7      12       7       3       1       1       5       1      11
       7       2       1       1      10       6       1      10       7       2
       8       6       1       5       5       2       3       1       1       1
      17      11      13      14       6       2       7       7      12       7
       3       1       1       5       1      11       7       2       1       1
      10       6       1      10       7       2       8       6       1       5
       5       2       3       1       1       1      17      11      13      14
       6       2       7       7      12       7       3       1       1       5
       1      11       7       2       1       1      10       6       1      10
       7       2       8       6       1       5       5       2       3       1
       1       1      17      11      13      14       6       2       7       7
      12       7       3       1       1       5       1      11       7       2
       1       1      10       6       1      10       7       2       8       6
       1       5       5       2       3       1       1       1      17      11
      13      14       6       2       7       7      12       7       3       1
       1       5       1      11       7       2       1       1      10       6
       1      10       7       2       8       6       1       5       5       2
       3       1       1       1      17      11      13      14       6       2
       7       7      12       7       3       1       1       5       1      11
       7       2       1       1      10       6       1      10       7       2
       8       6       1       5       5       2       3       1       1       1
      17      11      13      14       6       2       7       7      12       7
       3       1       1       5       1      11       7       2       1       1
      10       6       1      10       7       2       8       6       1       5
       5       2       3       1       1       1      17      11      13      14
       6       2       7       7      12       7       3       1       1       5
       1      11       7       2       1       1      10       6       1      10
       7       2       8       6       1       5       5       2       3       1
       1       1      17      11      13      14       6       2       7       7
      12       7       3       1       1       5       1      11       7       2
       1       1      10       6       1      10       7       2       8       6
       1       5       5       2       3       1       1       1      17      11
      13      14       6       2       7       7      12       7       3       1
       1       5       1      11       7       2       1       1      10       6
       1      10       7       2       8       6       1       5       5       2
       3       1       1       1      17      11      13      14       6       2
       7       7      12       7       3       1       1       5       1      11
       7       2       1       1      10       6       1      10       7       2
       8       6       1       5       5       2       3       1       1       1
      17      11      13      14       6       2       7       7      12       7
       3       1       1       5       1      11       7       2       1       1
      10       6       1      10       7       2       8       6       1       5
       5       2       3       1       1       1      17      11      13      14
       6       2       7       7      12       7       3       1       1       5
       1      11       7       2       1       1      10       6       1      10
       7       2       8       6       1       5       5       2       3       1
       1       1      17      11      13      14       6       2       7       7
      12       7       3       1       1       5       1      11       7       2
       1       1      10       6       1      10       7       2       8       6
       1       5       5       2       3       1       1       1      17      11
      13      14       6       2       7       7      12       7       3       1
       1       5       1      11       7       2       1       1      10       6
       1      10       7       2       8       6       1       5       5       2
       3       1       1       1      17      11      13      14       6       2
       7       7      12       7       3       1       1       5       1      11
       7       2       1       1      10       6       1      10       7       2
       8       6       1       5       5       2       3       1       1       1
      17      11      13      14       6       2       7       7      12       7
       3       1       1       5       1      11       7       2       1       1
      10       6       1      10       7       2       8       6       1       5
       5       2       3       1       1       1      17      11      13      14
       6       2       7       7      12       7       3       1       1       5
       1      11       7       2       1       1      10       6       1      10
       7       2       8       6       1       5       5       2       3       1
       1       1      17      11      13      14       6       2       7       7
      12       7       3       1       1       5       1      11       7       2
       1       1      10       6       1      10       7       2       8       6
       1       5       5       2       3       1       1       1      17      11
      13      14       6       2       7       7      12       7       3       1
       1       5       1      11       7       2       1       1      10       6
       1      10       7       2       8       6       1       5       5       2
       3       1       1       1      17      11      13      14       6       2
       7       7      12       7       3       1       1       5       1      11
       7       2       1       1      10       6       1      10       7       2
       8       6       1       5       5       2       3       1       1       1
      17      11      13      14       6       2       7       7      12       7
       3       1       1       5       1      11       7       2       1       1
      10       6       1      10       7       2       8       6       1       5
       5       2       3       1       1       1      17      11      13      14
       6       2       7       7      12       7       3       1       1       5
       1      11       7       2       1       1      10       6       1      10
       7       2       8       6       1       5       5       2       3       1
       1       1      17      11      13      14       6       2       7       7
      12       7       3       1       1       5       1      11       7       2
       1       1      10       6       1      10       7       2       8       6
       1       5       5       2       3       1       1       1      17      11
      13      14       6       2       7       7      12       7       3       1
       1       5       1      11       7       2       1       1      10       6
       1      10       7       2       8       6       1       5       5       2
       3       1       1       1      17      11      13      14       6       2
       7       7      12       7       3       1       1       5       1      11
       7       2       1       1      10       6       1      10       7       2
       8       6       1       5       5       2       3       1       1       1
      17      11      13      14       6       2       7       7      12       7
       3       1       1       5       1      11       7       2       1       1
      10       6       1      10       7       2       8       6       1       5
       5       2       3       1       1       1      17      11      13      14
       6       2       7       7      12       7       3       1       1       5
       1      11       7       2       1       1      10       6       1      10
       7       2       8       6       1       5       5       2       3       1
       1       1      17      11      13      14       6       2       7       7
      12       7       3       1       1       5       1      11       7       2
       1       1      10       6       1      10       7       2       8       6
       1       5       5       2       3       1       1       1      17      11
      13      14       6       2       7       7      12       7       3       1
       1       5       1      11       7       2       1       1      10       6
       1      10       7       2       8       6       1       5       5       2
       3       1       1       1      17      11      13      14       6       2
       7       7      12       7       3       1       1       5       1      11
       7       2       1       1      10       6       1      10       7       2
       8       6       1       5       5       2       3       1       1       1
      17      11      13      14       6       2       7       7      12       7
       3       1       1       5       1      11       7       2       1       1
      10       6       1      10       7       2       8       6       1       5
       5       2       3       1       1       1      17      11      13      14
       6       2       7       7      12       7       3       1       1       5
       1      11       7       2       1       1      10       6       1      10
       7       2       8       6       1       5       5       2       3       1
       1       1      17      11      13      14       6       2       7       7
      12       7       3       1       1       5       1      11       7       2
       1       1      10       6       1      10       7       2       8       6
       1       5       5       2       3       1       1       1      17      11
      13      14       6       2       7       7      12       7       3       1
       1       5       1      11       7       2       1       1      10       6
       1      10       7       2       8       6       1       5       5       2
       3       1       1       1      17      11      13      14       6       2
       7       7      12       7       3       1       1       5       1      11
       7       2       1       1      10       6       1      10       7       2
       8       6       1       5       5       2       3       1       1       1
      17      11      13      14       6       2       7       7      12       7
       3       1       1       5       1      11       7       2       1       1
      10       6       1      10       7       2       8       6       1       5
       5       2       3       1       1       1      17      11      13      14
       6       2       7       7      12       7       3       1       1       5
       1      11       7       2       1       1      10       6       1      10
       7       2       8       6       1       5       5       2       3       1
       1       1      17      11      13      14       6       2       7       7
      12       7       3       1       1       5       1      11       7       2
       1       1      10       6       1      10       7       2       8       6
       1       5       5       2       3       1       1       1      17      11
      13      14       6       2       7       7      12       7       3       1
       1       5       1      11       7       2       1       1      10       6
       1      10       7       2       8       6       1       5       5       2
       3       1       1       1      17      11      13      14       6       2
       7       7      12       7       3       1       1       5       1      11
       7       2       1       1      10       6       1      10       7       2
       8       6       1       5       5       2       3       1       1       1
      17      11      13      14       6       2       7       7      12       7
       3       1       1       5       1      11       7       2       1       1
      10       6       1      10       7       2       8       6       1       5
       5       2       3       1       1       1      17      11      13      14
       6       2       7       7      12       7       3       1       1       5
       1      11       7       2       1       1      10       6       1      10
       7       2       8       6       1       5       5       2       3       1
       1       1      17      11      13      14       6       2       7       7
      12       7       3       1       1       5       1      11       7       2
       1       1      10       6       1      10       7       2       8       6
       1       5       5       2       3       1       1       1      17      11
      13      14       6       2       7       7      12       7       3       1
       1       5       1      11       7       2       1       1      10       6
       1      10       7       2       8       6       1       5       5       2
       3       1       1       1      17      11      13      14       6       2
       7       7      12       7       3       1       1       5       1      11
       7       2       1       1      10       6       1      10       7       2
       8       6       1       5       5       2       3       1       1       1
      17      11      13      14       6       2       7       7      12       7
       3       1       1       5       1      11       7       2       1       1
      10       6       1      10       7       2       8       6       1       5
       5       2       3       1       1       1      17      11      13      14
       6       2       7       7      12       7       3       1       1       5
       1      11       7       2       1       1      10       6       1      10
       7       2       8       6       1       5       5       2       3       1
       1       1      17      11      13      14       6       2       7       7
      12       7       3       1       1       5       1      11       7       2
       1       1      10       6       1      10       7       2       8       6
       1       5       5       2       3       1       1       1      17      11
      13      14       6       2       7       7      12       7       3       1
       1       5       1      11       7       2       1       1      10       6
       1      10       7       2       8       6       1       5       5       2
       3       1       1       1      17      11      13      14       6       2
       7       7      12       7       3       1       1       5       1      11
       7       2       1       1      10       6       1      10       7       2
       8       6       1       5       5       2       3       1       1       1
      17      11      13      14       6       2       7       7      12       7
       3       1       1       5       1      11       7       2       1       1
      10       6       1      10       7       2       8       6       1       5
       5       2       3       1       1       1      17      11      13      14
       6       2       7       7      12       7       3       1       1       5
       1      11       7       2       1       1      10       6       1      10
       7       2       8       6       1       5       5       2       3       1
       1       1      17      11      13      14       6       2       7       7
      12       7       3       1       1       5       1      11       7       2
       1       1      10       6       1      10       7       2       8       6
       1       5       5       2       3       1       1       1      17      11
      13      14       6       2       7       7      12       7       3       1
       1       5       1      11       7       2       1       1      10       6
       1      10       7       2       8       6       1       5       5       2
       3       1       1       1      17      11      13      14       6       2
       7       7      12       7       3       1       1       5       1      11
       7       2       1       1      10       6       1      10       7       2
       8       6       1       5       5       2       3       1       1       1
      17      11      13      14       6       2       7       7      12       7
       3       1       1       5       1      11       7       2       1       1
      10       6       1      10       7       2       8       6       1       5
       5       2       3       1       1       1      17      11      13      14
       6       2       7       7      12       7       3       1       1       5
       1      11       7       2       1       1      10       6       1      10
       7       2       8       6       1       5       5       2       3       1
       1       1      17      11      13      14       6       2       7       7
      12       7       3       1       1       5       1      11       7       2
       1       1      10       6       1      10       7       2       8       6
       1       5       5       2       3       1       1       1      17      11
      13      14       6       2       7       7      12       7       3       1
       1       5       1      11       7       2       1       1      10       6
       1      10       7       2       8       6       1       5       5       2
       3       1       1       1      17      11      13      14       6       2
       7       7      12       7       3       1       1       5       1      11
       7       2       1       1      10       6       1      10       7       2
       8       6       1       5       5       2       3       1       1       1
      17      11      13      14       6       2       7       7      12       7
       3       1       1       5       1      11       7       2       1       1
      10       6       1      10       7       2       8       6       1       5
       5       2       3       1       1       1      17      11      13      14
       6       2       7       7      12       7       3       1       1       5
       1      11       7       2       1       1      10       6       1      10
       7       2       8       6       1       5       5       2       3       1
       1       1      17      11      13      14       6       2       7       7
      12       7       3       1       1       5       1      11       7       2
       1       1      10       6       1      10       7       2       8       6
       1       5       5       2       3       1       1       1      17      11
      13      14       6       2       7       7      12       7       3       1
       1       5       1      11       7       2       1       1      10       6
       1      10       7       2       8       6       1       5       5       2
       3       1       1       1      17      11      13      14       6       2
       7       7      12       7       3       1       1       5       1      11
       7       2       1       1      10       6       1      10       7       2
       8       6       1       5       5       2       3       1       1       1
      17      11      13      14       6       2       7       7      12       7
       3       1       1       5       1      11       7       2       1       1
      10       6       1      10       7       2       8       6       1       5
       5       2       3       1       1       1      17      11      13      14
       6       2       7       7      12       7       3       1       1       5
       1      11       7       2       1       1      10       6       1      10
       7       2       8       6       1       5       5       2       3       1
       1       1      17      11      13      14       6       2       7       7
      12       7       3       1       1       5       1      11       7       2
       1       1      10       6       1      10       7       2       8       6
       1       5       5       2       3       1       1       1      17      11
      13      14       6       2       7       7      12       7       3       1
       1       5       1      11       7       2       1       1      10       6
       1      10       7       2       8       6       1       5       5       2
       3       1       1       1      17      11      13      14       6       2
       7       7      12       7       3       1       1       5       1      11
       7       2       1       1      10       6       1      10       7       2
       8       6       1       5       5       2       3       1       1       1
      17      11      13      14       6       2       7       7      12       7
       3       1       1       5       1      11       7       2       1       1
      10       6       1      10       7       2       8       6       1       5
       5       2       3       1       1       1      17      11      13      14
       6       2       7       7      12       7       3       1       1       5
       1      11       7       2       1       1      10       6       1      10
       7       2       8       6       1       5       5       2       3       1
       1       1      17      11      13      14       6       2       7       7
      12       7       3       1       1       5       1      11       7       2
       1       1      10       6       1      10       7       2       8       6
       1       5       5       2       3       1       1       1      17      11
      13      14       6       2       7       7      12       7       3       1
       1       5       1      11       7       2       1       1      10       6
       1      10       7       2       8       6       1       5       5       2
       3       1       1       1      17      11      13      14       6       2
       7       7      12       7       3       1       1       5       1      11
       7       2       1       1      10       6       1      10       7       2
       8       6       1       5       5       2       3       1       1       1
      17      11      13      14       6       2       7       7      12       7
       3       1       1       5       1      11       7       2       1       1
      10       6       1      10       7       2       8       6       1       5
       5       2       3       1       1       1      17      11      13      14
       6       2       7       7      12       7       3       1       1       5
       1      11       7       2       1       1      10       6       1      10
       7       2       8       6       1       5       5       2       3       1
       1       1      17      11      13      14       6       2       7       7
      12       7       3       1       1       5       1      11       7       2
       1       1      10       6       1      10       7       2       8       6
       1       5       5       2       3       1       1       1      17      11
      13      14       6       2       7       7      12       7       3       1
       1       5       1      11       7       2       1       1      10       6
       1      10       7       2       8       6       1       5       5       2
       3       1       1       1      17      11      13      14       6       2
       7       7      12       7       3       1       1       5       1      11
       7       2       1       1      10       6       1      10       7       2
       8       6       1       5       5       2       3       1       1       1
      17      11      13      14       6       2       7       7      12       7
       3       1       1       5       1      11       7       2       1       1
      10       6       1      10       7       2       8       6       1       5
       5       2       3       1       1       1      17      11      13      14
       6       2       7       7      12       7       3       1       1       5
       1      11       7       2       1       1      10       6       1      10
       7       2       8       6       1       5       5       2       3       1
       1       1      17      11      13      14       6       2       7       7
      12       7       3       1       1       5       1      11       7       2
       1       1      10       6       1      10       7       2       8       6
       1       5       5       2       3       1       1       1      17      11
      13      14       6       2       7       7      12       7       3       1
       1       5       1      11       7       2       1       1      10       6
       1      10       7       2       8       6       1       5       5       2
       3       1       1       1      17      11      13      14       6       2
       7       7      12       7       3       1       1       5       1      11
       7       2       1       1      10       6       1      10       7       2
       8       6       1       5       5       2       3       1       1       1
      17      11      13      14       6       2       7       7      12       7
       3       1       1       5       1      11       7       2       1       1
      10       6       1      10       7       2       8       6       1       5
       5       2       3       1       1       1      17      11      13      14
       6       2       7       7      12       7       3       1       1       5
       1      11       7       2       1       1      10       6       1      10
       7       2       8       6       1       5       5       2       3       1
       1       1      17      11      13      14       6       2       7       7
      12       7       3       1       1       5       1      11       7       2
       1       1      10       6       1      10       7       2       8       6
       1       5       5       2       3       1       1       1      17      11
      13      14       6       2       7       7      12       7       3       1
       1       5       1      11       7       2       1       1      10       6
       1      10       7       2       8       6       1       5       5       2
       3       1       1       1      17      11      13      14       6       2
       7       7      12       7       3       1       1       5       1      11
       7       2       1       1      10       6       1      10       7       2
       8       6       1       5       5       2       3       1       1       1
      17      11      13      14       6       2       7       7      12       7
       3       1       1       5       1      11       7       2       1       1
      10       6       1      10       7       2       8       6       1       5
       5       2       3       1       1       1      17      11      13      14
       6       2       7       7      12       7       3       1       1       5
       1      11       7       2       1       1      10       6       1      10
       7       2       8       6       1       5       5       2       3       1
       1       1      17      11      13      14       6       2       7       7
      12       7       3       1       1       5       1      11       7       2
       1       1      10       6       1      10       7       2       8       6
       1       5       5       2       3       1       1       1      17      11
      13      14       6       2       7       7      12       7       3       1
       1       5       1      11       7       2       1       1      10       6
       1      10       7       2       8       6       1       5       5       2
       3       1       1       1      17      11      13      14       6       2
       7       7      12       7       3       1       1       5       1      11
       7       2       1       1      10       6       1      10       7       2
       8       6       1       5       5       2       3       1       1       1
      17      11      13      14       6       2       7       7      12       7
       3       1       1       5       1      11       7       2       1       1
      10       6       1      10       7       2       8       6       1       5
       5       2       3       1       1       1      17      11      13      14
       6       2       7       7      12       7       3       1       1       5
       1      11       7       2       1       1      10       6       1      10
       7       2       8       6       1       5       5       2       3       1
       1       1      17      11      13      14       6       2       7       7
      12       7       3       1       1       5       1      11       7       2
       1       1      10       6       1      10       7       2       8       6
       1       5       5       2       3       1       1       1      17      11
      13      14       6       2       7       7      12       7       3       1
       1       5       1      11       7       2       1       1      10       6
       1      10       7       2       8       6       1       5       5       2
       3       1       1       1      17      11      13      14       6       2
       7       7      12       7       3       1       1       5       1      11
       7       2       1       1      10       6       1      10       7       2
       8       6       1       5       5       2       3       1       1       1
      17      11      13      14       6       2       7       7      12       7
       3       1       1       5       1      11       7       2       1       1
      10       6       1      10       7       2       8       6       1       5
       5       2       3       1       1       1      17      11      13      14
       6       2       7       7      12       7       3       1       1       5
       1      11       7       2       1       1      10       6       1      10
       7       2       8       6       1       5       5       2       3       1
       1       1      17      11      13      14       6       2       7       7
      12       7       3       1       1       5       1      11       7       2
       1       1      10       6       1      10       7       2       8       6
       1       5       5       2       3       1       1       1      17      11
      13      14       6       2       7       7      12       7       3       1
       1       5       1      11       7       2       1       1      10       6
       1      10       7       2       8       6       1       5       5       2
       3       1       1       1      17      11      13      14       6       2
       7       7      12       7       3       1       1       5       1      11
       7       2       1       1      10       6       1      10       7       2
       8       6       1       5       5       2       3       1       1       1
      17      11      13      14       6       2       7       7      12       7
       3       1       1       5       1      11       7       2       1       1
      10       6       1      10       7       2       8       6       1       5
       5       2       3       1       1       1      17      11      13      14
       6       2       7       7      12       7       3       1       1       5
       1      11       7       2       1       1      10       6       1      10
       7       2       8       6       1       5       5       2       3       1
       1       1      17      11      13      14       6       2       7       7
      12       7       3       1       1       5       1      11       7       2
       1       1      10       6       1      10       7       2       8       6
       1       5       5       2       3       1       1       1      17      11
      13      14       6       2       7       7      12       7       3       1
       1       5       1      11       7       2       1       1      10       6
       1      10       7       2       8       6       1       5       5       2
       3       1       1       1      17      11      13      14       6       2
       7       7      12       7       3       1       1       5       1      11
       7       2       1       1      10       6       1      10       7       2
       8       6       1       5       5       2       3       1       1       1
      17      11      13      14       6       2       7       7      12       7
       3       1       1       5       1      11       7       2       1       1
      10       6       1      10       7       2       8       6       1       5
       5       2       3       1       1       1      17      11      13      14
       6       2       7       7      12       7       3       1       1       5
       1      11       7       2       1       1      10       6       1      10
       7       2       8       6       1       5       5       2       3       1
       1       1      17      11      13      14       6       2       7       7
      12       7       3       1       1       5       1      11       7       2
       1       1      10       6       1      10       7       2       8       6
       1       5       5       2       3       1       1       1      17      11
      13      14       6       2       7       7      12       7       3       1
       1       5       1      11       7       2       1       1      10       6
       1      10       7       2       8       6       1       5       5       2
       3       1       1       1      17      11      13      14       6       2
       7       7      12       7       3       1       1       5       1      11
       7       2       1       1      10       6       1      10       7       2
       8       6       1       5       5       2       3       1       1       1
      17      11      13      14       6       2       7       7      12       7
       3       1       1       5       1      11       7       2       1       1
      10       6       1      10       7       2       8       6       1       5
       5       2       3       1       1       1      17      11      13      14
       6       2       7       7      12       7       3       1       1       5
       1      11       7       2       1       1      10       6       1      10
       7       2       8       6       1       5       5       2       3       1
       1       1      17      11      13      14       6       2       7       7
      12       7       3       1       1       5       1      11       7       2
       1       1      10       6       1      10       7       2       8       6
       1       5       5       2       3       1       1       1      17      11
      13      14       6       2       7       7      12       7       3       1
       1       5       1      11       7       2       1       1      10       6
       1      10       7       2       8       6       1       5       5       2
       3       1       1       1      17      11      13      14       6       2
       7       7      12       7       3       1       1       5       1      11
       7       2       1       1      10       6       1      10       7       2
       8       6       1       5       5       2       3       1       1       1
      17      11      13      14       6       2       7       7      12       7
       3       1       1       5       1      11       7       2       1       1
      10       6       1      10       7       2       8       6       1       5
       5       2       3       1       1       1      17      11      13      14
       6       2       7       7      12       7       3       1       1       5
       1      11       7       2       1       1      10       6       1      10
       7       2       8       6       1       5       5       2       3       1
       1       1      17      11      13      14       6       2       7       7
      12       7       3       1       1       5       1      11       7       2
       1       1      10       6       1      10       7       2       8       6
       1       5       5       2       3       1       1       1      17      11
      13      14       6       2       7       7      12       7       3       1
       1       5       1      11       7       2       1       1      10       6
       1      10       7       2       8       6       1       5       5       2
       3       1       1       1      17      11      13      14       6       2
       7       7      12       7       3       1       1       5       1      11
       7       2       1       1      10       6       1      10       7       2
       8       6       1       5       5       2       3       1       1       1
      17      11      13      14       6       2       7       7      12       7
       3       1       1       5       1      11       7       2       1       1
      10       6       1      10       7       2       8       6       1       5
       5       2       3       1       1       1      17      11      13      14
       6       2       7       7      12       7       3       1       1       5
       1      11       7       2       1       1      10       6       1      10
       7       2       8       6       1       5       5       2       3       1
       1       1      17      11      13      14       6       2       7       7
      12       7       3       1       1       5       1      11       7       2
       1       1      10       6       1      10       7       2       8       6
       1       5       5       2       3       1       1       1      17      11
      13      14       6       2       7       7      12       7       3       1
       1       5       1      11       7       2       1       1      10       6
       1      10       7       2       8       6       1       5       5       2
       3       1       1       1      17      11      13      14       6       2
       7       7      12       7       3       1       1       5       1      11
       7       2       1       1      10       6       1      10       7       2
       8       6       1       5       5       2       3       1       1       1
      17      11      13      14       6       2       7       7      12       7
       3       1       1       5       1      11       7       2       1       1
      10       6       1      10       7       2       8       6       1       5
       5       2       3       1       1       1      17      11      13      14
       6       2       7       7      12       7       3       1       1       5
       1      11       7       2       1       1      10       6       1      10
       7       2       8       6       1       5       5       2       3       1
       1       1      17      11      13      14       6       2       7       7
      12       7       3       1       1       5       1      11       7       2
       1       1      10       6       1      10       7       2       8       6
       1       5       5       2       3       1       1       1      17      11
      13      14       6       2       7       7      12       7       3       1
       1       5       1      11       7       2       1       1      10       6
       1      10       7       2       8       6       1       5       5       2
       3       1       1       1      17      11      13      14       6       2
       7       7      12       7       3       1       1       5       1      11
       7       2       1       1      10       6       1      10       7       2
       8       6       1       5       5       2       3       1       1       1
      17      11      13      14       6       2       7       7      12       7
       3       1       1       5       1      11       7       2       1       1
      10       6       1      10       7       2       8       6       1       5
       5       2       3       1       1       1      17      11      13      14
       6       2       7       7      12       7       3       1       1       5
       1      11       7       2       1       1      10       6       1      10
       7       2       8       6       1       5       5       2       3       1
       1       1      17      11      13      14       6       2       7       7
      12       7       3       1       1       5       1      11       7       2
       1       1      10       6       1      10       7       2       8       6
       1       5       5       2       3       1       1       1      17      11
      13      14       6       2       7       7      12       7       3       1
       1       5       1      11       7       2       1       1      10       6
       1      10       7       2       8       6       1       5       5       2
       3       1       1       1      17      11      13      14       6       2
       7       7      12       7       3       1       1       5       1      11
       7       2       1       1      10       6       1      10       7       2
       8       6       1       5       5       2       3       1       1       1
      17      11      13      14       6       2       7       7      12       7
       3       1       1       5       1      11       7       2       1       1
      10       6       1      10       7       2       8       6       1       5
       5       2       3       1       1       1      17      11      13      14
       6       2       7       7      12       7       3       1       1       5
       1      11       7       2       1       1      10       6       1      10
       7       2       8       6       1       5       5       2       3       1
       1       1      17      11      13      14       6       2       7       7
      12       7       3       1       1       5       1      11       7       2
       1       1      10       6       1      10       7       2       8       6
       1       5       5       2       3       1       1       1      17      11
      13      14       6       2       7       7      12       7       3       1
       1       5       1      11       7       2       1       1      10       6
       1      10       7       2       8       6       1       5       5       2
       3       1       1       1      17      11      13      14       6       2
       7       7      12       7       3       1       1       5       1      11
       7       2       1       1      10       6       1      10       7       2
       8       6       1       5       5       2       3       1       1       1
      17      11      13      14       6       2       7       7      12       7
       3       1       1       5       1      11       7       2       1       1
      10       6       1      10       7       2       8       6       1       5
       5       2       3       1       1       1      17      11      13      14
       6       2       7       7      12       7       3       1       1       5
       1      11       7       2       1       1      10       6       1      10
       7       2       8       6       1       5       5       2       3       1
       1       1      17      11      13      14       6       2       7       7
      12       7       3       1       1       5       1      11       7       2
       1       1      10       6       1      10       7       2       8       6
       1       5       5       2       3       1       1       1      17      11
      13      14       6       2       7       7      12       7       3       1
       1       5       1      11       7       2       1       1      10       6
       1      10       7       2       8       6       1       5       5       2
       3       1       1       1      17      11      13      14       6       2
       7       7      12       7       3       1       1       5       1      11
       7       2       1       1      10       6       1      10       7       2
       8       6       1       5       5       2       3       1       1       1
      17      11      13      14       6       2       7       7      12       7
       3       1       1       5       1      11       7       2       1       1
      10       6       1      10       7       2       8       6       1       5
       5       2       3       1       1       1      17      11      13      14
       6       2       7       7      12       7       3       1       1       5
       1      11       7       2       1       1      10       6       1      10
       7       2       8       6       1       5       5       2       3       1
       1       1      17      11      13      14       6       2       7       7
      12       7       3       1       1       5       1      11       7       2
       1       1      10       6       1      10       7       2       8       6
       1       5       5       2       3       1       1       1      17      11
      13      14       6       2       7       7      12       7       3       1
       1       5       1      11       7       2       1       1      10       6
       1      10       7       2       8       6       1       5       5       2
       3       1       1       1      17      11      13      14       6       2
       7       7      12       7       3       1       1       5       1      11
       7       2       1       1      10       6       1      10       7       2
       8       6       1       5       5       2       3       1       1       1
      17      11      13      14       6       2       7       7      12       7
       3       1       1       5       1      11       7       2       1       1
      10       6       1      10       7       2       8       6       1       5
       5       2       3       1       1       1      17      11      13      14
       6       2       7       7      12       7       3       1       1       5
       1      11       7       2       1       1      10       6       1      10
       7       2       8       6       1       5       5       2       3       1
       1       1      17      11      13      14       6       2       7       7
      12       7       3       1       1       5       1      11       7       2
       1       1      10       6       1      10       7       2       8       6
       1       5       5       2       3       1       1       1      17      11
      13      14       6       2       7       7      12       7       3       1
       1       5       1      11       7       2       1       1      10       6
       1      10       7       2       8       6       1       5       5       2
       3       1       1       1      17      11      13      14       6       2
       7       7      12       7       3       1       1       5       1      11
       7       2       1       1      10       6       1      10       7       2
       8       6       1       5       5       2       3       1       1       1
      17      11      13      14       6       2       7       7      12       7
       3       1       1       5       1      11       7       2       1       1
      10       6       1      10       7       2       8       6       1       5
       5       2       3       1       1       1      17      11      13      14
       6       2       7       7      12       7       3       1       1       5
       1      11       7       2       1       1      10       6       1      10
       7       2       8       6       1       5       5       2       3       1
       1       1      17      11      13      14       6       2       7       7
      12       7       3       1       1       5       1      11       7       2
       1       1      10       6       1      10       7       2       8       6
       1       5       5       2       3       1       1       1      17      11
      13      14       6       2       7       7      12       7       3       1
       1       5       1      11       7       2       1       1      10       6
       1      10       7       2       8       6       1       5       5       2
       3       1       1       1      17      11      13      14       6       2
       7       7      12       7       3       1       1       5       1      11
       7       2       1       1      10       6       1      10       7       2
       8       6       1       5       5       2       3       1       1       1
      17      11      13      14       6       2       7       7      12       7
       3       1       1       5       1      11       7       2       1       1
      10       6       1      10       7       2       8       6       1       5
       5       2       3       1       1       1      17      11      13      14
       6       2       7       7      12       7       3       1       1       5
       1      11       7       2       1       1      10       6       1      10
       7       2       8       6       1       5       5       2       3       1
       1       1      17      11      13      14       6       2       7       7
      12       7       3       1       1       5       1      11       7       2
       1       1      10       6       1      10       7       2       8       6
       1       5       5       2       3       1       1       1      17      11
      13      14       6       2       7       7      12       7       3       1
       1       5       1      11       7       2       1       1      10       6
       1      10       7       2       8       6       1       5       5       2
       3       1       1       1      17      11      13      14       6       2
       7       7      12       7       3       1       1       5       1      11
       7       2       1       1      10       6       1      10       7       2
       8       6       1       5       5       2       3       1       1       1
      17      11      13      14       6       2       7       7      12       7
       3       1       1       5       1      11       7       2       1       1
      10       6       1      10       7       2       8       6       1       5
       5       2       3       1       1       1      17      11      13      14
       6       2       7       7      12       7       3       1       1       5
       1      11       7       2       1       1      10       6       1      10
       7       2       8       6       1       5       5       2       3       1
       1       1      17      11      13      14       6       2       7       7
      12       7       3       1       1       5       1      11       7       2
       1       1      10       6       1      10       7       2       8       6
       1       5       5       2       3       1       1       1      17      11
      13      14       6       2       7       7      12       7       3       1
       1       5       1      11       7       2       1       1      10       6
       1      10       7       2       8       6       1       5       5       2
       3       1       1       1      17      11      13      14       6       2
       7       7      12       7       3       1       1       5       1      11
       7       2       1       1      10       6       1      10       7       2
       8       6       1       5       5       2       3       1       1       1
      17      11      13      14       6       2       7       7      12       7
       3       1       1       5       1      11       7       2       1       1
      10       6       1      10       7       2       8       6       1       5
       5       2       3       1       1       1      17      11      13      14
       6       2       7       7      12       7       3       1       1       5
       1      11       7       2       1       1      10       6       1      10
       7       2       8       6       1       5       5       2       3       1
       1       1      17      11      13      14       6       2       7       7
      12       7       3       1       1       5       1      11       7       2
       1       1      10       6       1      10       7       2       8       6
       1       5       5       2       3       1       1       1      17      11
      13      14       6       2       7       7      12       7       3       1
       1       5       1      11       7       2       1       1      10       6
       1      10       7       2       8       6       1       5       5       2
       3       1       1       1      17      11      13      14       6       2
       7       7      12       7       3       1       1       5       1      11
       7       2       1       1      10       6       1      10       7       2
       8       6       1       5       5       2       3       1       1       1
      17      11      13      14       6       2       7       7      12       7
       3       1       1       5       1      11       7       2       1       1
      10       6       1      10       7       2       8       6       1       5
       5       2       3       1       1       1      17      11      13      14
       6       2       7       7      12       7       3       1       1       5
       1      11       7       2       1       1      10       6       1      10
       7       2       8       6       1       5       5       2       3       1
       1       1      17      11      13      14       6       2       7       7
      12       7       3       1       1       5       1      11       7       2
       1       1      10       6       1      10       7       2       8       6
       1       5       5       2       3       1       1       1      17      11
      13      14       6       2       7       7      12       7       3       1
       1       5       1      11       7       2       1       1      10       6
       1      10       7       2       8       6       1       5       5       2
       3       1       1       1      17      11      13      14       6       2
       7       7      12       7       3       1       1       5       1      11
       7       2       1       1      10       6       1      10       7       2
       8       6       1       5       5       2       3       1       1       1
      17      11      13      14       6       2       7       7      12       7
       3       1       1       5       1      11       7       2       1       1
      10       6       1      10       7       2       8       6       1       5
       5       2       3       1       1       1      17      11      13      14
       6       2       7       7      12       7       3       1       1       5
       1      11       7       2       1       1      10       6       1      10
       7       2       8       6       1       5       5       2       3       1
       1       1      17      11      13      14       6       2       7       7
      12       7       3       1       1       5       1      11       7       2
       1       1      10       6       1      10       7       2       8       6
       1       5       5       2       3       1       1       1      17      11
      13      14       6       2       7       7      12       7       3       1
       1       5       1      11       7       2       1       1      10       6
       1      10       7       2       8       6       1       5       5       2
       3       1       1       1      17      11      13      14       6       2
       7       7      12       7       3       1       1       5       1      11
       7       2       1       1      10       6       1      10       7       2
       8       6       1       5       5       2       3       1       1       1
      17      11      13      14       6       2       7       7      12       7
       3       1       1       5       1      11       7       2       1       1
      10       6       1      10       7       2       8       6       1       5
       5       2       3       1       1       1      17      11      13      14
       6       2       7       7      12       7       3       1       1       5
       1      11       7       2       1       1      10       6       1      10
       7       2       8       6       1       5       5       2       3       1
       1       1      17      11      13      14       6       2       7       7
      12       7       3       1       1       5       1      11       7       2
       1       1      10       6       1      10       7       2       8       6
       1       5       5       2       3       1       1       1      17      11
      13      14       6       2       7       7      12       7       3       1
       1       5       1      11       7       2       1       1      10       6
       1      10       7       2       8       6       1       5       5       2
       3       1       1       1      17      11      13      14       6       2
       7       7      12       7       3       1       1       5       1      11
       7       2       1       1      10       6       1      10       7       2
       8       6       1       5       5       2       3       1       1       1
      17      11      13      14       6       2       7       7      12       7
       3       1       1       5       1      11       7       2       1       1
      10       6       1      10       7       2       8       6       1       5
       5       2       3       1       1       1      17      11      13      14
       6       2       7       7      12       7       3       1       1       5
       1      11       7       2       1       1      10       6       1      10
       7       2       8       6       1       5       5       2       3       1
       1       1      17      11      13      14       6       2       7       7
      12       7       3       1       1       5       1      11       7       2
       1       1      10       6       1      10       7       2       8       6
       1       5       5       2       3       1       1       1      17      11
      13      14       6       2       7       7      12       7       3       1
       1       5       1      11       7       2       1       1      10       6
       1      10       7       2       8       6       1       5       5       2
       3       1       1       1      17      11      13      14       6       2
       7       7      12       7       3       1       1       5       1      11
       7       2       1       1      10       6       1      10       7       2
       8       6       1       5       5       2       3       1       1       1
%FLAG NONBONDED_PARM_INDEX
%FORMAT(10I8)
       1       2       2       3
%FLAG RESIDUE_LABEL
%FORMAT(20a4)
PIC PIC PIC PIC PIC PIC PIC PIC PIC PIC PIC PIC PIC PIC PIC PIC PIC PIC PIC PIC 
PIC PIC PIC PIC PIC PIC PIC PIC PIC PIC PIC PIC PIC PIC PIC PIC PIC PIC PIC PIC 
PIC PIC PIC PIC PIC PIC PIC PIC PIC PIC PIC PIC PIC PIC PIC PIC PIC PIC PIC PIC 
PIC PIC PIC PIC PIC PIC PIC PIC PIC PIC PIC PIC PIC PIC PIC PIC PIC PIC PIC PIC 
PIC PIC PIC PIC PIC PIC PIC PIC PIC PIC PIC PIC PIC PIC PIC PIC PIC PIC PIC PIC 
PIC PIC PIC PIC PIC PIC PIC PIC PIC PIC PIC PIC PIC PIC PIC PIC PIC PIC PIC PIC 
PIC PIC PIC PIC PIC PIC PIC PIC PIC PIC PIC PIC PIC PIC PIC PIC PIC PIC PIC PIC 
PIC PIC PIC PIC PIC PIC PIC PIC PIC PIC PIC PIC PIC PIC PIC PIC PIC PIC PIC PIC 
PIC PIC PIC PIC PIC PIC PIC PIC PIC PIC PIC PIC PIC PIC PIC PIC PIC PIC PIC PIC 
PIC PIC PIC PIC PIC PIC PIC PIC PIC PIC PIC PIC PIC PIC PIC PIC PIC PIC PIC PIC 
PIC PIC PIC PIC PIC PIC PIC PIC PIC PIC PIC PIC PIC PIC PIC PIC PIC PIC PIC PIC 
PIC PIC PIC PIC PIC PIC PIC PIC PIC PIC PIC PIC PIC PIC PIC PIC PIC PIC PIC PIC 
PIC PIC PIC PIC PIC PIC PIC PIC PIC PIC PIC PIC PIC PIC PIC PIC PIC PIC PIC PIC 
PIC PIC PIC PIC PIC PIC PIC PIC PIC PIC PIC PIC PIC PIC PIC PIC PIC PIC PIC PIC 
PIC PIC PIC PIC PIC PIC PIC PIC PIC PIC PIC PIC PIC PIC PIC PIC PIC PIC PIC PIC 
PIC PIC PIC PIC PIC PIC PIC PIC PIC PIC PIC PIC PIC PIC PIC PIC PIC PIC PIC PIC 
PIC PIC PIC PIC PIC PIC PIC PIC PIC PIC PIC PIC PIC PIC PIC PIC PIC PIC PIC PIC 
PIC PIC PIC PIC PIC PIC PIC PIC PIC PIC PIC PIC PIC PIC PIC PIC PIC PIC PIC PIC 
PIC PIC PIC PIC PIC PIC PIC PIC PIC PIC PIC PIC PIC PIC PIC PIC PIC PIC PIC PIC 
PIC PIC PIC PIC PIC PIC PIC PIC PIC PIC PIC PIC PIC PIC PIC PIC PIC PIC PIC PIC 
PIC PIC PIC PIC PIC PIC PIC PIC PIC PIC PIC PIC PIC PIC PIC PIC PIC PIC PIC PIC 
PIC PIC PIC PIC PIC PIC PIC PIC PIC PIC PIC PIC PIC PIC PIC PIC PIC PIC PIC PIC 
PIC PIC PIC PIC PIC PIC PIC PIC PIC PIC PIC PIC PIC PIC PIC PIC PIC PIC PIC PIC 
PIC PIC PIC PIC PIC PIC PIC PIC PIC PIC PIC PIC PIC PIC PIC PIC PIC PIC PIC PIC 
PIC PIC PIC PIC PIC PIC PIC PIC PIC PIC 
%FLAG RESIDUE_POINTER
%FORMAT(10I8)
       1      37      73     109     145     181     217     253     289     325
     361     397     433     469     505     541     577     613     649     685
     721     757     793     829     865     901     937     973    1009    1045
    1081    1117    1153    1189    1225    1261    1297    1333    1369    1405
    1441    1477    1513    1549    1585    1621    1657    1693    1729    1765
    1801    1837    1873    1909    1945    1981    2017    2053    2089    2125
    2161    2197    2233    2269    2305    2341    2377    2413    2449    2485
    2521    2557    2593    2629    2665    2701    2737    2773    2809    2845
    2881    2917    2953    2989    3025    3061    3097    3133    3169    3205
    3241    3277    3313    3349    3385    3421    3457    3493    3529    3565
    3601    3637    3673    3709    3745    3781    3817    3853    3889    3925
    3961    3997    4033    4069    4105    4141    4177    4213    4249    4285
    4321    4357    4393    4429    4465    4501    4537    4573    4609    4645
    4681    4717    4753    4789    4825    4861    4897    4933    4969    5005
    5041    5077    5113    5149    5185    5221    5257    5293    5329    5365
    5401    5437    5473    5509    5545    5581    5617    5653    5689    5725
    5761    5797    5833    5869    5905    5941    5977    6013    6049    6085
    6121    6157    6193    6229    6265    6301    6337    6373    6409    6445
    6481    6517    6553    6589    6625    6661    6697    6733    6769    6805
    6841    6877    6913    6949    6985    7021    7057    7093    7129    7165
    7201    7237    7273    7309    7345    7381    7417    7453    7489    7525
    7561    7597    7633    7669    7705    7741    7777    7813    7849    7885
    7921    7957    7993    8029    8065    8101    8137    8173    8209    8245
    8281    8317    8353    8389    8425    8461    8497    8533    8569    8605
    8641    8677    8713    8749    8785    8821    8857    8893    8929    8965
    9001    9037    9073    9109    9145    9181    9217    9253    9289    9325
    9361    9397    9433    9469    9505    9541    9577    9613    9649    9685
    9721    9757    9793    9829    9865    9901    9937    9973   10009   10045
   10081   10117   10153   10189   10225   10261   10297   10333   10369   10405
   10441   10477   10513   10549   10585   10621   10657   10693   10729   10765
   10801   10837   10873   10909   10945   10981   11017   11053   11089   11125
   11161   11197   11233   11269   11305   11341   11377   11413   11449   11485
   11521   11557   11593   11629   11665   11701   11737   11773   11809   11845
   11881   11917   11953   11989   12025   12061   12097   12133   12169   12205
   12241   12277   12313   12349   12385   12421   12457   12493   12529   12565
   12601   12637   12673   12709   12745   12781   12817   12853   12889   12925
   12961   12997   13033   13069   13105   13141   13177   13213   13249   13285
   13321   13357   13393   13429   13465   13501   13537   13573   13609   13645
   13681   13717   13753   13789   13825   13861   13897   13933   13969   14005
   14041   14077   14113   14149   14185   14221   14257   14293   14329   14365
   14401   14437   14473   14509   14545   14581   14617   14653   14689   14725
   14761   14797   14833   14869   14905   14941   14977   15013   15049   15085
   15121   15157   15193   15229   15265   15301   15337   15373   15409   15445
   15481   15517   15553   15589   15625   15661   15697   15733   15769   15805
   15841   15877   15913   15949   15985   16021   16057   16093   16129   16165
   16201   16237   16273   16309   16345   16381   16417   16453   16489   16525
   16561   16597   16633   16669   16705   16741   16777   16813   16849   16885
   16921   16957   16993   17029   17065   17101   17137   17173   17209   17245
   17281   17317   17353   17389   17425   17461   17497   17533   17569   17605
%FLAG BOND_FORCE_CONSTANT
%FORMAT(5E16.8)
  3.60690000E+02  3.54250000E+02
%FLAG BOND_EQUIL_VALUE
%FORMAT(5E16.8)
  1.08600000E+00  1.39860000E+00
%FLAG ANGLE_FORCE_CONSTANT
%FORMAT(5E16.8)
  4.49000000E+01  6.36700000E+01
%FLAG ANGLE_EQUIL_VALUE
%FORMAT(5E16.8)
  2.09230160E+00  2.09474507E+00
%FLAG DIHEDRAL_FORCE_CONSTANT
%FORMAT(5E16.8)
  3.62500000E+00  1.10000000E+00
%FLAG DIHEDRAL_PERIODICITY
%FORMAT(5E16.8)
  2.00000000E+00  2.00000000E+00
%FLAG DIHEDRAL_PHASE
%FORMAT(5E16.8)
  3.14159400E+00  3.14159400E+00
%FLAG SCEE_SCALE_FACTOR
%FORMAT(5E16.8)
  1.20000000E+00  0.00000000E+00
%FLAG SCNB_SCALE_FACTOR
%FORMAT(5E16.8)
  2.00000000E+00  0.00000000E+00
%FLAG SOLTY
%FORMAT(5E16.8)
  0.00000000E+00  0.00000000E+00
%FLAG LENNARD_JONES_ACOEF
%FORMAT(5E16.8)
  6.96551276E+05  7.52549148E+04  6.90855956E+03
%FLAG LENNARD_JONES_BCOEF
%FORMAT(5E16.8)
  5.24668528E+02  1.09570372E+02  2.10929191E+01
%FLAG BONDS_INC_HYDROGEN
%FORMAT(10I8)
      96     105       1      90     102       1      87      99       1      81
      93       1      72      84       1      63      75       1      48      66
       1      39      57       1      30      54       1      27      51       1
      21      42       1      18      36       1      12      33       1       3
      15       1     204     213       1     198     210       1     195     207
       1     189     201       1     180     192       1     171     183       1
     156     174       1     147     165       1     138     162       1     135
     159       1     129     150       1     126     144       1     120     141
       1     111     123       1     312     321       1     306     318       1
     303     315       1     297     309       1     288     300       1     279
     291       1     264     282       1     255     273       1     246     270
       1     243     267       1     237     258       1     234     252       1
     228     249       1     219     231       1     420     429       1     414
     426       1     411     423       1     405     417       1     396     408
       1     387     399       1     372     390       1     363     381       1
     354     378       1     351     375       1     345     366       1     342
     360       1     336     357       1     327     339       1     528     537
       1     522     534       1     519     531       1     513     525       1
     504     516       1     495     507       1     480     498       1     471
     489       1     462     486       1     459     483       1     453     474
       1     450     468       1     444     465       1     435     447       1
     636     645       1     630     642       1     627     639       1     621
     633       1     612     624       1     603     615       1     588     606
       1     579     597       1     570     594       1     567     591       1
     561     582       1     558     576       1     552     573       1     543
     555       1     744     753       1     738     750       1     735     747
       1     729     741       1     720     732       1     711     723       1
     696     714       1     687     705       1     678     702       1     675
     699       1     669     690       1     666     684       1     660     681
       1     651     663       1     852     861       1     846     858       1
     843     855       1     837     849       1     828     840       1     819
     831       1     804     822       1     795     813       1     786     810
       1     783     807       1     777     798       1     774     792       1
     768     789       1     759     771       1     960     969       1     954
     966       1     951     963       1     945     957       1     936     948
       1     927     939       1     912     930       1     903     921       1
     894     918       1     891     915       1     885     906       1     882
     900       1     876     897       1     867     879       1    1068    1077
       1    1062    1074       1    1059    1071       1    1053    1065       1
    1044    1056       1    1035    1047       1    1020    1038       1    1011
    1029       1    1002    1026       1     999    1023       1     993    1014
       1     990    1008       1     984    1005       1     975     987       1
    1176    1185       1    1170    1182       1    1167    1179       1    1161
    1173       1    1152    1164       1    1143    1155       1    1128    1146
       1    1119    1137       1    1110    1134       1    1107    1131       1
    1101    1122       1    1098    1116       1    1092    1113       1    1083
    1095       1    1284    1293       1    1278    1290       1    1275    1287
       1    1269    1281       1    1260    1272       1    1251    1263       1
    1236    1254       1    1227    1245       1    1218    1242       1    1215
    1239       1    1209    1230       1    1206    1224       1    1200    1221
       1    1191    1203       1    1392    1401       1    1386    1398       1
    1383    1395       1    1377    1389       1    1368    1380       1    1359
    1371       1    1344    1362       1    1335    1353       1    1326    1350
       1    1323    1347       1    1317    1338       1    1314    1332       1
    1308    1329       1    1299    1311       1    1500    1509       1    1494
    1506       1    1491    1503       1    1485    1497       1    1476    1488
       1    1467    1479       1    1452    1470       1    1443    1461       1
    1434    1458       1    1431    1455       1    1425    1446       1    1422
    1440       1    1416    1437       1    1407    1419       1    1608    1617
       1    1602    1614       1    1599    1611       1    1593    1605       1
    1584    1596       1    1575    1587       1    1560    1578       1    1551
    1569       1    1542    1566       1    1539    1563       1    1533    1554
       1    1530    1548       1    1524    1545       1    1515    1527       1
    1716    1725       1    1710    1722       1    1707    1719       1    1701
    1713       1    1692    1704       1    1683    1695       1    1668    1686
       1    1659    1677       1    1650    1674       1    1647    1671       1
    1641    1662       1    1638    1656       1    1632    1653       1    1623
    1635       1    1824    1833       1    1818    1830       1    1815    1827
       1    1809    1821       1    1800    1812       1    1791    1803       1
    1776    1794       1    1767    1785       1    1758    1782       1    1755
    1779       1    1749    1770       1    1746    1764       1    1740    1761
       1    1731    1743       1    1932    1941       1    1926    1938       1
    1923    1935       1    1917    1929       1    1908    1920       1    1899
    1911       1    1884    1902       1    1875    1893       1    1866    1890
       1    1863    1887       1    1857    1878       1    1854    1872       1
    1848    1869       1    1839    1851       1    2040    2049       1    2034
    2046       1    2031    2043       1    2025    2037       1    2016    2028
       1    2007    2019       1    1992    2010       1    1983    2001       1
    1974    1998       1    1971    1995       1    1965    1986       1    1962
    1980       1    1956    1977       1    1947    1959       1    2148    2157
       1    2142    2154       1    2139    2151       1    2133    2145       1
    2124    2136       1    2115    2127       1    2100    2118       1    2091
    2109       1    2082    2106       1    2079    2103       1    2073    2094
       1    2070    2088       1    2064    2085       1    2055    2067       1
    2256    2265       1    2250    2262       1    2247    2259       1    2241
    2253       1    2232    2244       1    2223    2235       1    2208    2226
       1    2199    2217       1    2190    2214       1    2187    2211       1
    2181    2202       1    2178    2196       1    2172    2193       1    2163
    2175       1    2364    2373       1    2358    2370       1    2355    2367
       1    2349    2361       1    2340    2352       1    2331    2343       1
    2316    2334       1    2307    2325       1    2298    2322       1    2295
    2319       1    2289    2310       1    2286    2304       1    2280    2301
       1    2271    2283       1    2472    2481       1    2466    2478       1
    2463    2475       1    2457    2469       1    2448    2460       1    2439
    2451       1    2424    2442       1    2415    2433       1    2406    2430
       1    2403    2427       1    2397    2418       1    2394    2412       1
    2388    2409       1    2379    2391       1    2580    2589       1    2574
    2586       1    2571    2583       1    2565    2577       1    2556    2568
       1    2547    2559       1    2532    2550       1    2523    2541       1
    2514    2538       1    2511    2535       1    2505    2526       1    2502
    2520       1    2496    2517       1    2487    2499       1    2688    2697
       1    2682    2694       1    2679    2691       1    2673    2685       1
    2664    2676       1    2655    2667       1    2640    2658       1    2631
    2649       1    2622    2646       1    2619    2643       1    2613    2634
       1    2610    2628       1    2604    2625       1    2595    2607       1
    2796    2805       1    2790    2802       1    2787    2799       1    2781
    2793       1    2772    2784       1    2763    2775       1    2748    2766
       1    2739    2757       1    2730    2754       1    2727    2751       1
    2721    2742       1    2718    2736       1    2712    2733       1    2703
    2715       1    2904    2913       1    2898    2910       1    2895    2907
       1    2889    2901       1    2880    2892       1    2871    2883       1
    2856    2874       1    2847    2865       1    2838    2862       1    2835
    2859       1    2829    2850       1    2826    2844       1    2820    2841
       1    2811    2823       1    3012    3021       1    3006    3018       1
    3003    3015       1    2997    3009       1    2988    3000       1    2979
    2991       1    2964    2982       1    2955    2973       1    2946    2970
       1    2943    2967       1    2937    2958       1    2934    2952       1
    2928    2949       1    2919    2931       1    3120    3129       1    3114
    3126       1    3111    3123       1    3105    3117       1    3096    3108
       1    3087    3099       1    3072    3090       1    3063    3081       1
    3054    3078       1    3051    3075       1    3045    3066       1    3042
    3060       1    3036    3057       1    3027    3039       1    3228    3237
       1    3222    3234       1    3219    3231       1    3213    3225       1
    3204    3216       1    3195    3207       1    3180    3198       1    3171
    3189       1    3162    3186       1    3159    3183       1    3153    3174
       1    3150    3168       1    3144    3165       1    3135    3147       1
    3336    3345       1    3330    3342       1    3327    3339       1    3321
    3333       1    3312    3324       1    3303    3315       1    3288    3306
       1    3279    3297       1    3270    3294       1    3267    3291       1
    3261    3282       1    3258    3276       1    3252    3273       1    3243
    3255       1    3444    3453       1    3438    3450       1    3435    3447
       1    3429    3441       1    3420    3432       1    3411    3423       1
    3396    3414       1    3387    3405       1    3378    3402       1    3375
    3399       1    3369    3390       1    3366    3384       1    3360    3381
       1    3351    3363       1    3552    3561       1    3546    3558       1
    3543    3555       1    3537    3549       1    3528    3540       1    3519
    3531       1    3504    3522       1    3495    3513       1    3486    3510
       1    3483    3507       1    3477    3498       1    3474    3492       1
    3468    3489       1    3459    3471       1    3660    3669       1    3654
    3666       1    3651    3663       1    3645    3657       1    3636    3648
       1    3627    3639       1    3612    3630       1    3603    3621       1
    3594    3618       1    3591    3615       1    3585    3606       1    3582
    3600       1    3576    3597       1    3567    3579       1    3768    3777
       1    3762    3774       1    3759    3771       1    3753    3765       1
    3744    3756       1    3735    3747       1    3720    3738       1    3711
    3729       1    3702    3726       1    3699    3723       1    3693    3714
       1    3690    3708       1    3684    3705       1    3675    3687       1
    3876    3885       1    3870    3882       1    3867    3879       1    3861
    3873       1    3852    3864       1    3843    3855       1    3828    3846
       1    3819    3837       1    3810    3834       1    3807    3831       1
    3801    3822       1    3798    3816       1    3792    3813       1    3783
    3795       1    3984    3993       1    3978    3990       1    3975    3987
       1    3969    3981       1    3960    3972       1    3951    3963       1
    3936    3954       1    3927    3945       1    3918    3942       1    3915
    3939       1    3909    3930       1    3906    3924       1    3900    3921
       1    3891    3903       1    4092    4101       1    4086    4098       1
    4083    4095       1    4077    4089       1    4068    4080       1    4059
    4071       1    4044    4062       1    4035    4053       1    4026    4050
       1    4023    4047       1    4017    4038       1    4014    4032       1
    4008    4029       1    3999    4011       1    4200    4209       1    4194
    4206       1    4191    4203       1    4185    4197       1    4176    4188
       1    4167    4179       1    4152    4170       1    4143    4161       1
    4134    4158       1    4131    4155       1    4125    4146       1    4122
    4140       1    4116    4137       1    4107    4119       1    4308    4317
       1    4302    4314       1    4299    4311       1    4293    4305       1
    4284    4296       1    4275    4287       1    4260    4278       1    4251
    4269       1    4242    4266       1    4239    4263       1    4233    4254
       1    4230    4248       1    4224    4245       1    4215    4227       1
    4416    4425       1    4410    4422       1    4407    4419       1    4401
    4413       1    4392    4404       1    4383    4395       1    4368    4386
       1    4359    4377       1    4350    4374       1    4347    4371       1
    4341    4362       1    4338    4356       1    4332    4353       1    4323
    4335       1    4524    4533       1    4518    4530       1    4515    4527
       1    4509    4521       1    4500    4512       1    4491    4503       1
    4476    4494       1    4467    4485       1    4458    4482       1    4455
    4479       1    4449    4470       1    4446    4464       1    4440    4461
       1    4431    4443       1    4632    4641       1    4626    4638       1
    4623    4635       1    4617    4629       1    4608    4620       1    4599
    4611       1    4584    4602       1    4575    4593       1    4566    4590
       1    4563    4587       1    4557    4578       1    4554    4572       1
    4548    4569       1    4539    4551       1    4740    4749       1    4734
    4746       1    4731    4743       1    4725    4737       1    4716    4728
       1    4707    4719       1    4692    4710       1    4683    4701       1
    4674    4698       1    4671    4695       1    4665    4686       1    4662
    4680       1    4656    4677       1    4647    4659       1    4848    4857
       1    4842    4854       1    4839    4851       1    4833    4845       1
    4824    4836       1    4815    4827       1    4800    4818       1    4791
    4809       1    4782    4806       1    4779    4803       1    4773    4794
       1    4770    4788       1    4764    4785       1    4755    4767       1
    4956    4965       1    4950    4962       1    4947    4959       1    4941
    4953       1    4932    4944       1    4923    4935       1    4908    4926
       1    4899    4917       1    4890    4914       1    4887    4911       1
    4881    4902       1    4878    4896       1    4872    4893       1    4863
    4875       1    5064    5073       1    5058    5070       1    5055    5067
       1    5049    5061       1    5040    5052       1    5031    5043       1
    5016    5034       1    5007    5025       1    4998    5022       1    4995
    5019       1    4989    5010       1    4986    5004       1    4980    5001
       1    4971    4983       1    5172    5181       1    5166    5178       1
    5163    5175       1    5157    5169       1    5148    5160       1    5139
    5151       1    5124    5142       1    5115    5133       1    5106    5130
       1    5103    5127       1    5097    5118       1    5094    5112       1
    5088    5109       1    5079    5091       1    5280    5289       1    5274
    5286       1    5271    5283       1    5265    5277       1    5256    5268
       1    5247    5259       1    5232    5250       1    5223    5241       1
    5214    5238       1    5211    5235       1    5205    5226       1    5202
    5220       1    5196    5217       1    5187    5199       1    5388    5397
       1    5382    5394       1    5379    5391       1    5373    5385       1
    5364    5376       1    5355    5367       1    5340    5358       1    5331
    5349       1    5322    5346       1    5319    5343       1    5313    5334
       1    5310    5328       1    5304    5325       1    5295    5307       1
    5496    5505       1    5490    5502       1    5487    5499       1    5481
    5493       1    5472    5484       1    5463    5475       1    5448    5466
       1    5439    5457       1    5430    5454       1    5427    5451       1
    5421    5442       1    5418    5436       1    5412    5433       1    5403
    5415       1    5604    5613       1    5598    5610       1    5595    5607
       1    5589    5601       1    5580    5592       1    5571    5583       1
    5556    5574       1    5547    5565       1    5538    5562       1    5535
    5559       1    5529    5550       1    5526    5544       1    5520    5541
       1    5511    5523       1    5712    5721       1    5706    5718       1
    5703    5715       1    5697    5709       1    5688    5700       1    5679
    5691       1    5664    5682       1    5655    5673       1    5646    5670
       1    5643    5667       1    5637    5658       1    5634    5652       1
    5628    5649       1    5619    5631       1    5820    5829       1    5814
    5826       1    5811    5823       1    5805    5817       1    5796    5808
       1    5787    5799       1    5772    5790       1    5763    5781       1
    5754    5778       1    5751    5775       1    5745    5766       1    5742
    5760       1    5736    5757       1    5727    5739       1    5928    5937
       1    5922    5934       1    5919    5931       1    5913    5925       1
    5904    5916       1    5895    5907       1    5880    5898       1    5871
    5889       1    5862    5886       1    5859    5883       1    5853    5874
       1    5850    5868       1    5844    5865       1    5835    5847       1
    6036    6045       1    6030    6042       1    6027    6039       1    6021
    6033       1    6012    6024       1    6003    6015       1    5988    6006
       1    5979    5997       1    5970    5994       1    5967    5991       1
    5961    5982       1    5958    5976       1    5952    5973       1    5943
    5955       1    6144    6153       1    6138    6150       1    6135    6147
       1    6129    6141       1    6120    6132       1    6111    6123       1
    6096    6114       1    6087    6105       1    6078    6102       1    6075
    6099       1    6069    6090       1    6066    6084       1    6060    6081
       1    6051    6063       1    6252    6261       1    6246    6258       1
    6243    6255       1    6237    6249       1    6228    6240       1    6219
    6231       1    6204    6222       1    6195    6213       1    6186    6210
       1    6183    6207       1    6177    6198       1    6174    6192       1
    6168    6189       1    6159    6171       1    6360    6369       1    6354
    6366       1    6351    6363       1    6345    6357       1    6336    6348
       1    6327    6339       1    6312    6330       1    6303    6321       1
    6294    6318       1    6291    6315       1    6285    6306       1    6282
    6300       1    6276    6297       1    6267    6279       1    6468    6477
       1    6462    6474       1    6459    6471       1    6453    6465       1
    6444    6456       1    6435    6447       1    6420    6438       1    6411
    6429       1    6402    6426       1    6399    6423       1    6393    6414
       1    6390    6408       1    6384    6405       1    6375    6387       1
    6576    6585       1    6570    6582       1    6567    6579       1    6561
    6573       1    6552    6564       1    6543    6555       1    6528    6546
       1    6519    6537       1    6510    6534       1    6507    6531       1
    6501    6522       1    6498    6516       1    6492    6513       1    6483
    6495       1    6684    6693       1    6678    6690       1    6675    6687
       1    6669    6681       1    6660    6672       1    6651    6663       1
    6636    6654       1    6627    6645       1    6618    6642       1    6615
    6639       1    6609    6630       1    6606    6624       1    6600    6621
       1    6591    6603       1    6792    6801       1    6786    6798       1
    6783    6795       1    6777    6789       1    6768    6780       1    6759
    6771       1    6744    6762       1    6735    6753       1    6726    6750
       1    6723    6747       1    6717    6738       1    6714    6732       1
    6708    6729       1    6699    6711       1    6900    6909       1    6894
    6906       1    6891    6903       1    6885    6897       1    6876    6888
       1    6867    6879       1    6852    6870       1    6843    6861       1
    6834    6858       1    6831    6855       1    6825    6846       1    6822
    6840       1    6816    6837       1    6807    6819       1    7008    7017
       1    7002    7014       1    6999    7011       1    6993    7005       1
    6984    6996       1    6975    6987       1    6960    6978       1    6951
    6969       1    6942    6966       1    6939    6963       1    6933    6954
       1    6930    6948       1    6924    6945       1    6915    6927       1
    7116    7125       1    7110    7122       1    7107    7119       1    7101
    7113       1    7092    7104       1    7083    7095       1    7068    7086
       1    7059    7077       1    7050    7074       1    7047    7071       1
    7041    7062       1    7038    7056       1    7032    7053       1    7023
    7035       1    7224    7233       1    7218    7230       1    7215    7227
       1    7209    7221       1    7200    7212       1    7191    7203       1
    7176    7194       1    7167    7185       1    7158    7182       1    7155
    7179       1    7149    7170       1    7146    7164       1    7140    7161
       1    7131    7143       1    7332    7341       1    7326    7338       1
    7323    7335       1    7317    7329       1    7308    7320       1    7299
    7311       1    7284    7302       1    7275    7293       1    7266    7290
       1    7263    7287       1    7257    7278       1    7254    7272       1
    7248    7269       1    7239    7251       1    7440    7449       1    7434
    7446       1    7431    7443       1    7425    7437       1    7416    7428
       1    7407    7419       1    7392    7410       1    7383    7401       1
    7374    7398       1    7371    7395       1    7365    7386       1    7362
    7380       1    7356    7377       1    7347    7359       1    7548    7557
       1    7542    7554       1    7539    7551       1    7533    7545       1
    7524    7536       1    7515    7527       1    7500    7518       1    7491
    7509       1    7482    7506       1    7479    7503       1    7473    7494
       1    7470    7488       1    7464    7485       1    7455    7467       1
    7656    7665       1    7650    7662       1    7647    7659       1    7641
    7653       1    7632    7644       1    7623    7635       1    7608    7626
       1    7599    7617       1    7590    7614       1    7587    7611       1
    7581    7602       1    7578    7596       1    7572    7593       1    7563
    7575       1    7764    7773       1    7758    7770       1    7755    7767
       1    7749    7761       1    7740    7752       1    7731    7743       1
    7716    7734       1    7707    7725       1    7698    7722       1    7695
    7719       1    7689    7710       1    7686    7704       1    7680    7701
       1    7671    7683       1    7872    7881       1    7866    7878       1
    7863    7875       1    7857    7869       1    7848    7860       1    7839
    7851       1    7824    7842       1    7815    7833       1    7806    7830
       1    7803    7827       1    7797    7818       1    7794    7812       1
    7788    7809       1    7779    7791       1    7980    7989       1    7974
    7986       1    7971    7983       1    7965    7977       1    7956    7968
       1    7947    7959       1    7932    7950       1    7923    7941       1
    7914    7938       1    7911    7935       1    7905    7926       1    7902
    7920       1    7896    7917       1    7887    7899       1    8088    8097
       1    8082    8094       1    8079    8091       1    8073    8085       1
    8064    8076       1    8055    8067       1    8040    8058       1    8031
    8049       1    8022    8046       1    8019    8043       1    8013    8034
       1    8010    8028       1    8004    8025       1    7995    8007       1
    8196    8205       1    8190    8202       1    8187    8199       1    8181
    8193       1    8172    8184       1    8163    8175       1    8148    8166
       1    8139    8157       1    8130    8154       1    8127    8151       1
    8121    8142       1    8118    8136       1    8112    8133       1    8103
    8115       1    8304    8313       1    8298    8310       1    8295    8307
       1    8289    8301       1    8280    8292       1    8271    8283       1
    8256    8274       1    8247    8265       1    8238    8262       1    8235
    8259       1    8229    8250       1    8226    8244       1    8220    8241
       1    8211    8223       1    8412    8421       1    8406    8418       1
    8403    8415       1    8397    8409       1    8388    8400       1    8379
    8391       1    8364    8382       1    8355    8373       1    8346    8370
       1    8343    8367       1    8337    8358       1    8334    8352       1
    8328    8349       1    8319    8331       1    8520    8529       1    8514
    8526       1    8511    8523       1    8505    8517       1    8496    8508
       1    8487    8499       1    8472    8490       1    8463    8481       1
    8454    8478       1    8451    8475       1    8445    8466       1    8442
    8460       1    8436    8457       1    8427    8439       1    8628    8637
       1    8622    8634       1    8619    8631       1    8613    8625       1
    8604    8616       1    8595    8607       1    8580    8598       1    8571
    8589       1    8562    8586       1    8559    8583       1    8553    8574
       1    8550    8568       1    8544    8565       1    8535    8547       1
    8736    8745       1    8730    8742       1    8727    8739       1    8721
    8733       1    8712    8724       1    8703    8715       1    8688    8706
       1    8679    8697       1    8670    8694       1    8667    8691       1
    8661    8682       1    8658    8676       1    8652    8673       1    8643
    8655       1    8844    8853       1    8838    8850       1    8835    8847
       1    8829    8841       1    8820    8832       1    8811    8823       1
    8796    8814       1    8787    8805       1    8778    8802       1    8775
    8799       1    8769    8790       1    8766    8784       1    8760    8781
       1    8751    8763       1    8952    8961       1    8946    8958       1
    8943    8955       1    8937    8949       1    8928    8940       1    8919
    8931       1    8904    8922       1    8895    8913       1    8886    8910
       1    8883    8907       1    8877    8898       1    8874    8892       1
    8868    8889       1    8859    8871       1    9060    9069       1    9054
    9066       1    9051    9063       1    9045    9057       1    9036    9048
       1    9027    9039       1    9012    9030       1    9003    9021       1
    8994    9018       1    8991    9015       1    8985    9006       1    8982
    9000       1    8976    8997       1    8967    8979       1    9168    9177
       1    9162    9174       1    9159    9171       1    9153    9165       1
    9144    9156       1    9135    9147       1    9120    9138       1    9111
    9129       1    9102    9126       1    9099    9123       1    9093    9114
       1    9090    9108       1    9084    9105       1    9075    9087       1
    9276    9285       1    9270    9282       1    9267    9279       1    9261
    9273       1    9252    9264       1    9243    9255       1    9228    9246
       1    9219    9237       1    9210    9234       1    9207    9231       1
    9201    9222       1    9198    9216       1    9192    9213       1    9183
    9195       1    9384    9393       1    9378    9390       1    9375    9387
       1    9369    9381       1    9360    9372       1    9351    9363       1
    9336    9354       1    9327    9345       1    9318    9342       1    9315
    9339       1    9309    9330       1    9306    9324       1    9300    9321
       1    9291    9303       1    9492    9501       1    9486    9498       1
    9483    9495       1    9477    9489       1    9468    9480       1    9459
    9471       1    9444    9462       1    9435    9453       1    9426    9450
       1    9423    9447       1    9417    9438       1    9414    9432       1
    9408    9429       1    9399    9411       1    9600    9609       1    9594
    9606       1    9591    9603       1    9585    9597       1    9576    9588
       1    9567    9579       1    9552    9570       1    9543    9561       1
    9534    9558       1    9531    9555       1    9525    9546       1    9522
    9540       1    9516    9537       1    9507    9519       1    9708    9717
       1    9702    9714       1    9699    9711       1    9693    9705       1
    9684    9696       1    9675    9687       1    9660    9678       1    9651
    9669       1    9642    9666       1    9639    9663       1    9633    9654
       1    9630    9648       1    9624    9645       1    9615    9627       1
    9816    9825       1    9810    9822       1    9807    9819       1    9801
    9813       1    9792    9804       1    9783    9795       1    9768    9786
       1    9759    9777       1    9750    9774       1    9747    9771       1
    9741    9762       1    9738    9756       1    9732    9753       1    9723
    9735       1    9924    9933       1    9918    9930       1    9915    9927
       1    9909    9921       1    9900    9912       1    9891    9903       1
    9876    9894       1    9867    9885       1    9858    9882       1    9855
    9879       1    9849    9870       1    9846    9864       1    9840    9861
       1    9831    9843       1   10032   10041       1   10026   10038       1
   10023   10035       1   10017   10029       1   10008   10020       1    9999
   10011       1    9984   10002       1    9975    9993       1    9966    9990
       1    9963    9987       1    9957    9978       1    9954    9972       1
    9948    9969       1    9939    9951       1   10140   10149       1   10134
   10146       1   10131   10143       1   10125   10137       1   10116   10128
       1   10107   10119       1   10092   10110       1   10083   10101       1
   10074   10098       1   10071   10095       1   10065   10086       1   10062
   10080       1   10056   10077       1   10047   10059       1   10248   10257
       1   10242   10254       1   10239   10251       1   10233   10245       1
   10224   10236       1   10215   10227       1   10200   10218       1   10191
   10209       1   10182   10206       1   10179   10203       1   10173   10194
       1   10170   10188       1   10164   10185       1   10155   10167       1
   10356   10365       1   10350   10362       1   10347   10359       1   10341
   10353       1   10332   10344       1   10323   10335       1   10308   10326
       1   10299   10317       1   10290   10314       1   10287   10311       1
   10281   10302       1   10278   10296       1   10272   10293       1   10263
   10275       1   10464   10473       1   10458   10470       1   10455   10467
       1   10449   10461       1   10440   10452       1   10431   10443       1
   10416   10434       1   10407   10425       1   10398   10422       1   10395
   10419       1   10389   10410       1   10386   10404       1   10380   10401
       1   10371   10383       1   10572   10581       1   10566   10578       1
   10563   10575       1   10557   10569       1   10548   10560       1   10539
   10551       1   10524   10542       1   10515   10533       1   10506   10530
       1   10503   10527       1   10497   10518       1   10494   10512       1
   10488   10509       1   10479   10491       1   10680   10689       1   10674
   10686       1   10671   10683       1   10665   10677       1   10656   10668
       1   10647   10659       1   10632   10650       1   10623   10641       1
   10614   10638       1   10611   10635       1   10605   10626       1   10602
   10620       1   10596   10617       1   10587   10599       1   10788   10797
       1   10782   10794       1   10779   10791       1   10773   10785       1
   10764   10776       1   10755   10767       1   10740   10758       1   10731
   10749       1   10722   10746       1   10719   10743       1   10713   10734
       1   10710   10728       1   10704   10725       1   10695   10707       1
   10896   10905       1   10890   10902       1   10887   10899       1   10881
   10893       1   10872   10884       1   10863   10875       1   10848   10866
       1   10839   10857       1   10830   10854       1   10827   10851       1
   10821   10842       1   10818   10836       1   10812   10833       1   10803
   10815       1   11004   11013       1   10998   11010       1   10995   11007
       1   10989   11001       1   10980   10992       1   10971   10983       1
   10956   10974       1   10947   10965       1   10938   10962       1   10935
   10959       1   10929   10950       1   10926   10944       1   10920   10941
       1   10911   10923       1   11112   11121       1   11106   11118       1
   11103   11115       1   11097   11109       1   11088   11100       1   11079
   11091       1   11064   11082       1   11055   11073       1   11046   11070
       1   11043   11067       1   11037   11058       1   11034   11052       1
   11028   11049       1   11019   11031       1   11220   11229       1   11214
   11226       1   11211   11223       1   11205   11217       1   11196   11208
       1   11187   11199       1   11172   11190       1   11163   11181       1
   11154   11178       1   11151   11175       1   11145   11166       1   11142
   11160       1   11136   11157       1   11127   11139       1   11328   11337
       1   11322   11334       1   11319   11331       1   11313   11325       1
   11304   11316       1   11295   11307       1   11280   11298       1   11271
   11289       1   11262   11286       1   11259   11283       1   11253   11274
       1   11250   11268       1   11244   11265       1   11235   11247       1
   11436   11445       1   11430   11442       1   11427   11439       1   11421
   11433       1   11412   11424       1   11403   11415       1   11388   11406
       1   11379   11397       1   11370   11394       1   11367   11391       1
   11361   11382       1   11358   11376       1   11352   11373       1   11343
   11355       1   11544   11553       1   11538   11550       1   11535   11547
       1   11529   11541       1   11520   11532       1   11511   11523       1
   11496   11514       1   11487   11505       1   11478   11502       1   11475
   11499       1   11469   11490       1   11466   11484       1   11460   11481
       1   11451   11463       1   11652   11661       1   11646   11658       1
   11643   11655       1   11637   11649       1   11628   11640       1   11619
   11631       1   11604   11622       1   11595   11613       1   11586   11610
       1   11583   11607       1   11577   11598       1   11574   11592       1
   11568   11589       1   11559   11571       1   11760   11769       1   11754
   11766       1   11751   11763       1   11745   11757       1   11736   11748
       1   11727   11739       1   11712   11730       1   11703   11721       1
   11694   11718       1   11691   11715       1   11685   11706       1   11682
   11700       1   11676   11697       1   11667   11679       1   11868   11877
       1   11862   11874       1   11859   11871       1   11853   11865       1
   11844   11856       1   11835   11847       1   11820   11838       1   11811
   11829       1   11802   11826       1   11799   11823       1   11793   11814
       1   11790   11808       1   11784   11805       1   11775   11787       1
   11976   11985       1   11970   11982       1   11967   11979       1   11961
   11973       1   11952   11964       1   11943   11955       1   11928   11946
       1   11919   11937       1   11910   11934       1   11907   11931       1
   11901   11922       1   11898   11916       1   11892   11913       1   11883
   11895       1   12084   12093       1   12078   12090       1   12075   12087
       1   12069   12081       1   12060   12072       1   12051   12063       1
   12036   12054       1   12027   12045       1   12018   12042       1   12015
   12039       1   12009   12030       1   12006   12024       1   12000   12021
       1   11991   12003       1   12192   12201       1   12186   12198       1
   12183   12195       1   12177   12189       1   12168   12180       1   12159
   12171       1   12144   12162       1   12135   12153       1   12126   12150
       1   12123   12147       1   12117   12138       1   12114   12132       1
   12108   12129       1   12099   12111       1   12300   12309       1   12294
   12306       1   12291   12303       1   12285   12297       1   12276   12288
       1   12267   12279       1   12252   12270       1   12243   12261       1
   12234   12258       1   12231   12255       1   12225   12246       1   12222
   12240       1   12216   12237       1   12207   12219       1   12408   12417
       1   12402   12414       1   12399   12411       1   12393   12405       1
   12384   12396       1   12375   12387       1   12360   12378       1   12351
   12369       1   12342   12366       1   12339   12363       1   12333   12354
       1   12330   12348       1   12324   12345       1   12315   12327       1
   12516   12525       1   12510   12522       1   12507   12519       1   12501
   12513       1   12492   12504       1   12483   12495       1   12468   12486
       1   12459   12477       1   12450   12474       1   12447   12471       1
   12441   12462       1   12438   12456       1   12432   12453       1   12423
   12435       1   12624   12633       1   12618   12630       1   12615   12627
       1   12609   12621       1   12600   12612       1   12591   12603       1
   12576   12594       1   12567   12585       1   12558   12582       1   12555
   12579       1   12549   12570       1   12546   12564       1   12540   12561
       1   12531   12543       1   12732   12741       1   12726   12738       1
   12723   12735       1   12717   12729       1   12708   12720       1   12699
   12711       1   12684   12702       1   12675   12693       1   12666   12690
       1   12663   12687       1   12657   12678       1   12654   12672       1
   12648   12669       1   12639   12651       1   12840   12849       1   12834
   12846       1   12831   12843       1   12825   12837       1   12816   12828
       1   12807   12819       1   12792   12810       1   12783   12801       1
   12774   12798       1   12771   12795       1   12765   12786       1   12762
   12780       1   12756   12777       1   12747   12759       1   12948   12957
       1   12942   12954       1   12939   12951       1   12933   12945       1
   12924   12936       1   12915   12927       1   12900   12918       1   12891
   12909       1   12882   12906       1   12879   12903       1   12873   12894
       1   12870   12888       1   12864   12885       1   12855   12867       1
   13056   13065       1   13050   13062       1   13047   13059       1   13041
   13053       1   13032   13044       1   13023   13035       1   13008   13026
       1   12999   13017       1   12990   13014       1   12987   13011       1
   12981   13002       1   12978   12996       1   12972   12993       1   12963
   12975       1   13164   13173       1   13158   13170       1   13155   13167
       1   13149   13161       1   13140   13152       1   13131   13143       1
   13116   13134       1   13107   13125       1   13098   13122       1   13095
   13119       1   13089   13110       1   13086   13104       1   13080   13101
       1   13071   13083       1   13272   13281       1   13266   13278       1
   13263   13275       1   13257   13269       1   13248   13260       1   13239
   13251       1   13224   13242       1   13215   13233       1   13206   13230
       1   13203   13227       1   13197   13218       1   13194   13212       1
   13188   13209       1   13179   13191       1   13380   13389       1   13374
   13386       1   13371   13383       1   13365   13377       1   13356   13368
       1   13347   13359       1   13332   13350       1   13323   13341       1
   13314   13338       1   13311   13335       1   13305   13326       1   13302
   13320       1   13296   13317       1   13287   13299       1   13488   13497
       1   13482   13494       1   13479   13491       1   13473   13485       1
   13464   13476       1   13455   13467       1   13440   13458       1   13431
   13449       1   13422   13446       1   13419   13443       1   13413   13434
       1   13410   13428       1   13404   13425       1   13395   13407       1
   13596   13605       1   13590   13602       1   13587   13599       1   13581
   13593       1   13572   13584       1   13563   13575       1   13548   13566
       1   13539   13557       1   13530   13554       1   13527   13551       1
   13521   13542       1   13518   13536       1   13512   13533       1   13503
   13515       1   13704   13713       1   13698   13710       1   13695   13707
       1   13689   13701       1   13680   13692       1   13671   13683       1
   13656   13674       1   13647   13665       1   13638   13662       1   13635
   13659       1   13629   13650       1   13626   13644       1   13620   13641
       1   13611   13623       1   13812   13821       1   13806   13818       1
   13803   13815       1   13797   13809       1   13788   13800       1   13779
   13791       1   13764   13782       1   13755   13773       1   13746   13770
       1   13743   13767       1   13737   13758       1   13734   13752       1
   13728   13749       1   13719   13731       1   13920   13929       1   13914
   13926       1   13911   13923       1   13905   13917       1   13896   13908
       1   13887   13899       1   13872   13890       1   13863   13881       1
   13854   13878       1   13851   13875       1   13845   13866       1   13842
   13860       1   13836   13857       1   13827   13839       1   14028   14037
       1   14022   14034       1   14019   14031       1   14013   14025       1
   14004   14016       1   13995   14007       1   13980   13998       1   13971
   13989       1   13962   13986       1   13959   13983       1   13953   13974
       1   13950   13968       1   13944   13965       1   13935   13947       1
   14136   14145       1   14130   14142       1   14127   14139       1   14121
   14133       1   14112   14124       1   14103   14115       1   14088   14106
       1   14079   14097       1   14070   14094       1   14067   14091       1
   14061   14082       1   14058   14076       1   14052   14073       1   14043
   14055       1   14244   14253       1   14238   14250       1   14235   14247
       1   14229   14241       1   14220   14232       1   14211   14223       1
   14196   14214       1   14187   14205       1   14178   14202       1   14175
   14199       1   14169   14190       1   14166   14184       1   14160   14181
       1   14151   14163       1   14352   14361       1   14346   14358       1
   14343   14355       1   14337   14349       1   14328   14340       1   14319
   14331       1   14304   14322       1   14295   14313       1   14286   14310
       1   14283   14307       1   14277   14298       1   14274   14292       1
   14268   14289       1   14259   14271       1   14460   14469       1   14454
   14466       1   14451   14463       1   14445   14457       1   14436   14448
       1   14427   14439       1   14412   14430       1   14403   14421       1
   14394   14418       1   14391   14415       1   14385   14406       1   14382
   14400       1   14376   14397       1   14367   14379       1   14568   14577
       1   14562   14574       1   14559   14571       1   14553   14565       1
   14544   14556       1   14535   14547       1   14520   14538       1   14511
   14529       1   14502   14526       1   14499   14523       1   14493   14514
       1   14490   14508       1   14484   14505       1   14475   14487       1
   14676   14685       1   14670   14682       1   14667   14679       1   14661
   14673       1   14652   14664       1   14643   14655       1   14628   14646
       1   14619   14637       1   14610   14634       1   14607   14631       1
   14601   14622       1   14598   14616       1   14592   14613       1   14583
   14595       1   14784   14793       1   14778   14790       1   14775   14787
       1   14769   14781       1   14760   14772       1   14751   14763       1
   14736   14754       1   14727   14745       1   14718   14742       1   14715
   14739       1   14709   14730       1   14706   14724       1   14700   14721
       1   14691   14703       1   14892   14901       1   14886   14898       1
   14883   14895       1   14877   14889       1   14868   14880       1   14859
   14871       1   14844   14862       1   14835   14853       1   14826   14850
       1   14823   14847       1   14817   14838       1   14814   14832       1
   14808   14829       1   14799   14811       1   15000   15009       1   14994
   15006       1   14991   15003       1   14985   14997       1   14976   14988
       1   14967   14979       1   14952   14970       1   14943   14961       1
   14934   14958       1   14931   14955       1   14925   14946       1   14922
   14940       1   14916   14937       1   14907   14919       1   15108   15117
       1   15102   15114       1   15099   15111       1   15093   15105       1
   15084   15096       1   15075   15087       1   15060   15078       1   15051
   15069       1   15042   15066       1   15039   15063       1   15033   15054
       1   15030   15048       1   15024   15045       1   15015   15027       1
   15216   15225       1   15210   15222       1   15207   15219       1   15201
   15213       1   15192   15204       1   15183   15195       1   15168   15186
       1   15159   15177       1   15150   15174       1   15147   15171       1
   15141   15162       1   15138   15156       1   15132   15153       1   15123
   15135       1   15324   15333       1   15318   15330       1   15315   15327
       1   15309   15321       1   15300   15312       1   15291   15303       1
   15276   15294       1   15267   15285       1   15258   15282       1   15255
   15279       1   15249   15270       1   15246   15264       1   15240   15261
       1   15231   15243       1   15432   15441       1   15426   15438       1
   15423   15435       1   15417   15429       1   15408   15420       1   15399
   15411       1   15384   15402       1   15375   15393       1   15366   15390
       1   15363   15387       1   15357   15378       1   15354   15372       1
   15348   15369       1   15339   15351       1   15540   15549       1   15534
   15546       1   15531   15543       1   15525   15537       1   15516   15528
       1   15507   15519       1   15492   15510       1   15483   15501       1
   15474   15498       1   15471   15495       1   15465   15486       1   15462
   15480       1   15456   15477       1   15447   15459       1   15648   15657
       1   15642   15654       1   15639   15651       1   15633   15645       1
   15624   15636       1   15615   15627       1   15600   15618       1   15591
   15609       1   15582   15606       1   15579   15603       1   15573   15594
       1   15570   15588       1   15564   15585       1   15555   15567       1
   15756   15765       1   15750   15762       1   15747   15759       1   15741
   15753       1   15732   15744       1   15723   15735       1   15708   15726
       1   15699   15717       1   15690   15714       1   15687   15711       1
   15681   15702       1   15678   15696       1   15672   15693       1   15663
   15675       1   15864   15873       1   15858   15870       1   15855   15867
       1   15849   15861       1   15840   15852       1   15831   15843       1
   15816   15834       1   15807   15825       1   15798   15822       1   15795
   15819       1   15789   15810       1   15786   15804       1   15780   15801
       1   15771   15783       1   15972   15981       1   15966   15978       1
   15963   15975       1   15957   15969       1   15948   15960       1   15939
   15951       1   15924   15942       1   15915   15933       1   15906   15930
       1   15903   15927       1   15897   15918       1   15894   15912       1
   15888   15909       1   15879   15891       1   16080   16089       1   16074
   16086       1   16071   16083       1   16065   16077       1   16056   16068
       1   16047   16059       1   16032   16050       1   16023   16041       1
   16014   16038       1   16011   16035       1   16005   16026       1   16002
   16020       1   15996   16017       1   15987   15999       1   16188   16197
       1   16182   16194       1   16179   16191       1   16173   16185       1
   16164   16176       1   16155   16167       1   16140   16158       1   16131
   16149       1   16122   16146       1   16119   16143       1   16113   16134
       1   16110   16128       1   16104   16125       1   16095   16107       1
   16296   16305       1   16290   16302       1   16287   16299       1   16281
   16293       1   16272   16284       1   16263   16275       1   16248   16266
       1   16239   16257       1   16230   16254       1   16227   16251       1
   16221   16242       1   16218   16236       1   16212   16233       1   16203
   16215       1   16404   16413       1   16398   16410       1   16395   16407
       1   16389   16401       1   16380   16392       1   16371   16383       1
   16356   16374       1   16347   16365       1   16338   16362       1   16335
   16359       1   16329   16350       1   16326   16344       1   16320   16341
       1   16311   16323       1   16512   16521       1   16506   16518       1
   16503   16515       1   16497   16509       1   16488   16500       1   16479
   16491       1   16464   16482       1   16455   16473       1   16446   16470
       1   16443   16467       1   16437   16458       1   16434   16452       1
   16428   16449       1   16419   16431       1   16620   16629       1   16614
   16626       1   16611   16623       1   16605   16617       1   16596   16608
       1   16587   16599       1   16572   16590       1   16563   16581       1
   16554   16578       1   16551   16575       1   16545   16566       1   16542
   16560       1   16536   16557       1   16527   16539       1   16728   16737
       1   16722   16734       1   16719   16731       1   16713   16725       1
   16704   16716       1   16695   16707       1   16680   16698       1   16671
   16689       1   16662   16686       1   16659   16683       1   16653   16674
       1   16650   16668       1   16644   16665       1   16635   16647       1
   16836   16845       1   16830   16842       1   16827   16839       1   16821
   16833       1   16812   16824       1   16803   16815       1   16788   16806
       1   16779   16797       1   16770   16794       1   16767   16791       1
   16761   16782       1   16758   16776       1   16752   16773       1   16743
   16755       1   16944   16953       1   16938   16950       1   16935   16947
       1   16929   16941       1   16920   16932       1   16911   16923       1
   16896   16914       1   16887   16905       1   16878   16902       1   16875
   16899       1   16869   16890       1   16866   16884       1   16860   16881
       1   16851   16863       1   17052   17061       1   17046   17058       1
   17043   17055       1   17037   17049       1   17028   17040       1   17019
   17031       1   17004   17022       1   16995   17013       1   16986   17010
       1   16983   17007       1   16977   16998       1   16974   16992       1
   16968   16989       1   16959   16971       1   17160   17169       1   17154
   17166       1   17151   17163       1   17145   17157       1   17136   17148
       1   17127   17139       1   17112   17130       1   17103   17121       1
   17094   17118       1   17091   17115       1   17085   17106       1   17082
   17100       1   17076   17097       1   17067   17079       1   17268   17277
       1   17262   17274       1   17259   17271       1   17253   17265       1
   17244   17256       1   17235   17247       1   17220   17238       1   17211
   17229       1   17202   17226       1   17199   17223       1   17193   17214
       1   17190   17208       1   17184   17205       1   17175   17187       1
   17376   17385       1   17370   17382       1   17367   17379       1   17361
   17373       1   17352   17364       1   17343   17355       1   17328   17346
       1   17319   17337       1   17310   17334       1   17307   17331       1
   17301   17322       1   17298   17316       1   17292   17313       1   17283
   17295       1   17484   17493       1   17478   17490       1   17475   17487
       1   17469   17481       1   17460   17472       1   17451   17463       1
   17436   17454       1   17427   17445       1   17418   17442       1   17415
   17439       1   17409   17430       1   17406   17424       1   17400   17421
       1   17391   17403       1   17592   17601       1   17586   17598       1
   17583   17595       1   17577   17589       1   17568   17580       1   17559
   17571       1   17544   17562       1   17535   17553       1   17526   17550
       1   17523   17547       1   17517   17538       1   17514   17532       1
   17508   17529       1   17499   17511       1   17700   17709       1   17694
   17706       1   17691   17703       1   17685   17697       1   17676   17688
       1   17667   17679       1   17652   17670       1   17643   17661       1
   17634   17658       1   17631   17655       1   17625   17646       1   17622
   17640       1   17616   17637       1   17607   17619       1   17808   17817
       1   17802   17814       1   17799   17811       1   17793   17805       1
   17784   17796       1   17775   17787       1   17760   17778       1   17751
   17769       1   17742   17766       1   17739   17763       1   17733   17754
       1   17730   17748       1   17724   17745       1   17715   17727       1
   17916   17925       1   17910   17922       1   17907   17919       1   17901
   17913       1   17892   17904       1   17883   17895       1   17868   17886
       1   17859   17877       1   17850   17874       1   17847   17871       1
   17841   17862       1   17838   17856       1   17832   17853       1   17823
   17835       1   18024   18033       1   18018   18030       1   18015   18027
       1   18009   18021       1   18000   18012       1   17991   18003       1
   17976   17994       1   17967   17985       1   17958   17982       1   17955
   17979       1   17949   17970       1   17946   17964       1   17940   17961
       1   17931   17943       1   18132   18141       1   18126   18138       1
   18123   18135       1   18117   18129       1   18108   18120       1   18099
   18111       1   18084   18102       1   18075   18093       1   18066   18090
       1   18063   18087       1   18057   18078       1   18054   18072       1
   18048   18069       1   18039   18051       1   18240   18249       1   18234
   18246       1   18231   18243       1   18225   18237       1   18216   18228
       1   18207   18219       1   18192   18210       1   18183   18201       1
   18174   18198       1   18171   18195       1   18165   18186       1   18162
   18180       1   18156   18177       1   18147   18159       1   18348   18357
       1   18342   18354       1   18339   18351       1   18333   18345       1
   18324   18336       1   18315   18327       1   18300   18318       1   18291
   18309       1   18282   18306       1   18279   18303       1   18273   18294
       1   18270   18288       1   18264   18285       1   18255   18267       1
   18456   18465       1   18450   18462       1   18447   18459       1   18441
   18453       1   18432   18444       1   18423   18435       1   18408   18426
       1   18399   18417       1   18390   18414       1   18387   18411       1
   18381   18402       1   18378   18396       1   18372   18393       1   18363
   18375       1   18564   18573       1   18558   18570       1   18555   18567
       1   18549   18561       1   18540   18552       1   18531   18543       1
   18516   18534       1   18507   18525       1   18498   18522       1   18495
   18519       1   18489   18510       1   18486   18504       1   18480   18501
       1   18471   18483       1   18672   18681       1   18666   18678       1
   18663   18675       1   18657   18669       1   18648   18660       1   18639
   18651       1   18624   18642       1   18615   18633       1   18606   18630
       1   18603   18627       1   18597   18618       1   18594   18612       1
   18588   18609       1   18579   18591       1   18780   18789       1   18774
   18786       1   18771   18783       1   18765   18777       1   18756   18768
       1   18747   18759       1   18732   18750       1   18723   18741       1
   18714   18738       1   18711   18735       1   18705   18726       1   18702
   18720       1   18696   18717       1   18687   18699       1   18888   18897
       1   18882   18894       1   18879   18891       1   18873   18885       1
   18864   18876       1   18855   18867       1   18840   18858       1   18831
   18849       1   18822   18846       1   18819   18843       1   18813   18834
       1   18810   18828       1   18804   18825       1   18795   18807       1
   18996   19005       1   18990   19002       1   18987   18999       1   18981
   18993       1   18972   18984       1   18963   18975       1   18948   18966
       1   18939   18957       1   18930   18954       1   18927   18951       1
   18921   18942       1   18918   18936       1   18912   18933       1   18903
   18915       1   19104   19113       1   19098   19110       1   19095   19107
       1   19089   19101       1   19080   19092       1   19071   19083       1
   19056   19074       1   19047   19065       1   19038   19062       1   19035
   19059       1   19029   19050       1   19026   19044       1   19020   19041
       1   19011   19023       1   19212   19221       1   19206   19218       1
   19203   19215       1   19197   19209       1   19188   19200       1   19179
   19191       1   19164   19182       1   19155   19173       1   19146   19170
       1   19143   19167       1   19137   19158       1   19134   19152       1
   19128   19149       1   19119   19131       1   19320   19329       1   19314
   19326       1   19311   19323       1   19305   19317       1   19296   19308
       1   19287   19299       1   19272   19290       1   19263   19281       1
   19254   19278       1   19251   19275       1   19245   19266       1   19242
   19260       1   19236   19257       1   19227   19239       1   19428   19437
       1   19422   19434       1   19419   19431       1   19413   19425       1
   19404   19416       1   19395   19407       1   19380   19398       1   19371
   19389       1   19362   19386       1   19359   19383       1   19353   19374
       1   19350   19368       1   19344   19365       1   19335   19347       1
   19536   19545       1   19530   19542       1   19527   19539       1   19521
   19533       1   19512   19524       1   19503   19515       1   19488   19506
       1   19479   19497       1   19470   19494       1   19467   19491       1
   19461   19482       1   19458   19476       1   19452   19473       1   19443
   19455       1   19644   19653       1   19638   19650       1   19635   19647
       1   19629   19641       1   19620   19632       1   19611   19623       1
   19596   19614       1   19587   19605       1   19578   19602       1   19575
   19599       1   19569   19590       1   19566   19584       1   19560   19581
       1   19551   19563       1   19752   19761       1   19746   19758       1
   19743   19755       1   19737   19749       1   19728   19740       1   19719
   19731       1   19704   19722       1   19695   19713       1   19686   19710
       1   19683   19707       1   19677   19698       1   19674   19692       1
   19668   19689       1   19659   19671       1   19860   19869       1   19854
   19866       1   19851   19863       1   19845   19857       1   19836   19848
       1   19827   19839       1   19812   19830       1   19803   19821       1
   19794   19818       1   19791   19815       1   19785   19806       1   19782
   19800       1   19776   19797       1   19767   19779       1   19968   19977
       1   19962   19974       1   19959   19971       1   19953   19965       1
   19944   19956       1   19935   19947       1   19920   19938       1   19911
   19929       1   19902   19926       1   19899   19923       1   19893   19914
       1   19890   19908       1   19884   19905       1   19875   19887       1
   20076   20085       1   20070   20082       1   20067   20079       1   20061
   20073       1   20052   20064       1   20043   20055       1   20028   20046
       1   20019   20037       1   20010   20034       1   20007   20031       1
   20001   20022       1   19998   20016       1   19992   20013       1   19983
   19995       1   20184   20193       1   20178   20190       1   20175   20187
       1   20169   20181       1   20160   20172       1   20151   20163       1
   20136   20154       1   20127   20145       1   20118   20142       1   20115
   20139       1   20109   20130       1   20106   20124       1   20100   20121
       1   20091   20103       1   20292   20301       1   20286   20298       1
   20283   20295       1   20277   20289       1   20268   20280       1   20259
   20271       1   20244   20262       1   20235   20253       1   20226   20250
       1   20223   20247       1   20217   20238       1   20214   20232       1
   20208   20229       1   20199   20211       1   20400   20409       1   20394
   20406       1   20391   20403       1   20385   20397       1   20376   20388
       1   20367   20379       1   20352   20370       1   20343   20361       1
   20334   20358       1   20331   20355       1   20325   20346       1   20322
   20340       1   20316   20337       1   20307   20319       1   20508   20517
       1   20502   20514       1   20499   20511       1   20493   20505       1
   20484   20496       1   20475   20487       1   20460   20478       1   20451
   20469       1   20442   20466       1   20439   20463       1   20433   20454
       1   20430   20448       1   20424   20445       1   20415   20427       1
   20616   20625       1   20610   20622       1   20607   20619       1   20601
   20613       1   20592   20604       1   20583   20595       1   20568   20586
       1   20559   20577       1   20550   20574       1   20547   20571       1
   20541   20562       1   20538   20556       1   20532   20553       1   20523
   20535       1   20724   20733       1   20718   20730       1   20715   20727
       1   20709   20721       1   20700   20712       1   20691   20703       1
   20676   20694       1   20667   20685       1   20658   20682       1   20655
   20679       1   20649   20670       1   20646   20664       1   20640   20661
       1   20631   20643       1   20832   20841       1   20826   20838       1
   20823   20835       1   20817   20829       1   20808   20820       1   20799
   20811       1   20784   20802       1   20775   20793       1   20766   20790
       1   20763   20787       1   20757   20778       1   20754   20772       1
   20748   20769       1   20739   20751       1   20940   20949       1   20934
   20946       1   20931   20943       1   20925   20937       1   20916   20928
       1   20907   20919       1   20892   20910       1   20883   20901       1
   20874   20898       1   20871   20895       1   20865   20886       1   20862
   20880       1   20856   20877       1   20847   20859       1   21048   21057
       1   21042   21054       1   21039   21051       1   21033   21045       1
   21024   21036       1   21015   21027       1   21000   21018       1   20991
   21009       1   20982   21006       1   20979   21003       1   20973   20994
       1   20970   20988       1   20964   20985       1   20955   20967       1
   21156   21165       1   21150   21162       1   21147   21159       1   21141
   21153       1   21132   21144       1   21123   21135       1   21108   21126
       1   21099   21117       1   21090   21114       1   21087   21111       1
   21081   21102       1   21078   21096       1   21072   21093       1   21063
   21075       1   21264   21273       1   21258   21270       1   21255   21267
       1   21249   21261       1   21240   21252       1   21231   21243       1
   21216   21234       1   21207   21225       1   21198   21222       1   21195
   21219       1   21189   21210       1   21186   21204       1   21180   21201
       1   21171   21183       1   21372   21381       1   21366   21378       1
   21363   21375       1   21357   21369       1   21348   21360       1   21339
   21351       1   21324   21342       1   21315   21333       1   21306   21330
       1   21303   21327       1   21297   21318       1   21294   21312       1
   21288   21309       1   21279   21291       1   21480   21489       1   21474
   21486       1   21471   21483       1   21465   21477       1   21456   21468
       1   21447   21459       1   21432   21450       1   21423   21441       1
   21414   21438       1   21411   21435       1   21405   21426       1   21402
   21420       1   21396   21417       1   21387   21399       1   21588   21597
       1   21582   21594       1   21579   21591       1   21573   21585       1
   21564   21576       1   21555   21567       1   21540   21558       1   21531
   21549       1   21522   21546       1   21519   21543       1   21513   21534
       1   21510   21528       1   21504   21525       1   21495   21507       1
   21696   21705       1   21690   21702       1   21687   21699       1   21681
   21693       1   21672   21684       1   21663   21675       1   21648   21666
       1   21639   21657       1   21630   21654       1   21627   21651       1
   21621   21642       1   21618   21636       1   21612   21633       1   21603
   21615       1   21804   21813       1   21798   21810       1   21795   21807
       1   21789   21801       1   21780   21792       1   21771   21783       1
   21756   21774       1   21747   21765       1   21738   21762       1   21735
   21759       1   21729   21750       1   21726   21744       1   21720   21741
       1   21711   21723       1   21912   21921       1   21906   21918       1
   21903   21915       1   21897   21909       1   21888   21900       1   21879
   21891       1   21864   21882       1   21855   21873       1   21846   21870
       1   21843   21867       1   21837   21858       1   21834   21852       1
   21828   21849       1   21819   21831       1   22020   22029       1   22014
   22026       1   22011   22023       1   22005   22017       1   21996   22008
       1   21987   21999       1   21972   21990       1   21963   21981       1
   21954   21978       1   21951   21975       1   21945   21966       1   21942
   21960       1   21936   21957       1   21927   21939       1   22128   22137
       1   22122   22134       1   22119   22131       1   22113   22125       1
   22104   22116       1   22095   22107       1   22080   22098       1   22071
   22089       1   22062   22086       1   22059   22083       1   22053   22074
       1   22050   22068       1   22044   22065       1   22035   22047       1
   22236   22245       1   22230   22242       1   22227   22239       1   22221
   22233       1   22212   22224       1   22203   22215       1   22188   22206
       1   22179   22197       1   22170   22194       1   22167   22191       1
   22161   22182       1   22158   22176       1   22152   22173       1   22143
   22155       1   22344   22353       1   22338   22350       1   22335   22347
       1   22329   22341       1   22320   22332       1   22311   22323       1
   22296   22314       1   22287   22305       1   22278   22302       1   22275
   22299       1   22269   22290       1   22266   22284       1   22260   22281
       1   22251   22263       1   22452   22461       1   22446   22458       1
   22443   22455       1   22437   22449       1   22428   22440       1   22419
   22431       1   22404   22422       1   22395   22413       1   22386   22410
       1   22383   22407       1   22377   22398       1   22374   22392       1
   22368   22389       1   22359   22371       1   22560   22569       1   22554
   22566       1   22551   22563       1   22545   22557       1   22536   22548
       1   22527   22539       1   22512   22530       1   22503   22521       1
   22494   22518       1   22491   22515       1   22485   22506       1   22482
   22500       1   22476   22497       1   22467   22479       1   22668   22677
       1   22662   22674       1   22659   22671       1   22653   22665       1
   22644   22656       1   22635   22647       1   22620   22638       1   22611
   22629       1   22602   22626       1   22599   22623       1   22593   22614
       1   22590   22608       1   22584   22605       1   22575   22587       1
   22776   22785       1   22770   22782       1   22767   22779       1   22761
   22773       1   22752   22764       1   22743   22755       1   22728   22746
       1   22719   22737       1   22710   22734       1   22707   22731       1
   22701   22722       1   22698   22716       1   22692   22713       1   22683
   22695       1   22884   22893       1   22878   22890       1   22875   22887
       1   22869   22881       1   22860   22872       1   22851   22863       1
   22836   22854       1   22827   22845       1   22818   22842       1   22815
   22839       1   22809   22830       1   22806   22824       1   22800   22821
       1   22791   22803       1   22992   23001       1   22986   22998       1
   22983   22995       1   22977   22989       1   22968   22980       1   22959
   22971       1   22944   22962       1   22935   22953       1   22926   22950
       1   22923   22947       1   22917   22938       1   22914   22932       1
   22908   22929       1   22899   22911       1   23100   23109       1   23094
   23106       1   23091   23103       1   23085   23097       1   23076   23088
       1   23067   23079       1   23052   23070       1   23043   23061       1
   23034   23058       1   23031   23055       1   23025   23046       1   23022
   23040       1   23016   23037       1   23007   23019       1   23208   23217
       1   23202   23214       1   23199   23211       1   23193   23205       1
   23184   23196       1   23175   23187       1   23160   23178       1   23151
   23169       1   23142   23166       1   23139   23163       1   23133   23154
       1   23130   23148       1   23124   23145       1   23115   23127       1
   23316   23325       1   23310   23322       1   23307   23319       1   23301
   23313       1   23292   23304       1   23283   23295       1   23268   23286
       1   23259   23277       1   23250   23274       1   23247   23271       1
   23241   23262       1   23238   23256       1   23232   23253       1   23223
   23235       1   23424   23433       1   23418   23430       1   23415   23427
       1   23409   23421       1   23400   23412       1   23391   23403       1
   23376   23394       1   23367   23385       1   23358   23382       1   23355
   23379       1   23349   23370       1   23346   23364       1   23340   23361
       1   23331   23343       1   23532   23541       1   23526   23538       1
   23523   23535       1   23517   23529       1   23508   23520       1   23499
   23511       1   23484   23502       1   23475   23493       1   23466   23490
       1   23463   23487       1   23457   23478       1   23454   23472       1
   23448   23469       1   23439   23451       1   23640   23649       1   23634
   23646       1   23631   23643       1   23625   23637       1   23616   23628
       1   23607   23619       1   23592   23610       1   23583   23601       1
   23574   23598       1   23571   23595       1   23565   23586       1   23562
   23580       1   23556   23577       1   23547   23559       1   23748   23757
       1   23742   23754       1   23739   23751       1   23733   23745       1
   23724   23736       1   23715   23727       1   23700   23718       1   23691
   23709       1   23682   23706       1   23679   23703       1   23673   23694
       1   23670   23688       1   23664   23685       1   23655   23667       1
   23856   23865       1   23850   23862       1   23847   23859       1   23841
   23853       1   23832   23844       1   23823   23835       1   23808   23826
       1   23799   23817       1   23790   23814       1   23787   23811       1
   23781   23802       1   23778   23796       1   23772   23793       1   23763
   23775       1   23964   23973       1   23958   23970       1   23955   23967
       1   23949   23961       1   23940   23952       1   23931   23943       1
   23916   23934       1   23907   23925       1   23898   23922       1   23895
   23919       1   23889   23910       1   23886   23904       1   23880   23901
       1   23871   23883       1   24072   24081       1   24066   24078       1
   24063   24075       1   24057   24069       1   24048   24060       1   24039
   24051       1   24024   24042       1   24015   24033       1   24006   24030
       1   24003   24027       1   23997   24018       1   23994   24012       1
   23988   24009       1   23979   23991       1   24180   24189       1   24174
   24186       1   24171   24183       1   24165   24177       1   24156   24168
       1   24147   24159       1   24132   24150       1   24123   24141       1
   24114   24138       1   24111   24135       1   24105   24126       1   24102
   24120       1   24096   24117       1   24087   24099       1   24288   24297
       1   24282   24294       1   24279   24291       1   24273   24285       1
   24264   24276       1   24255   24267       1   24240   24258       1   24231
   24249       1   24222   24246       1   24219   24243       1   24213   24234
       1   24210   24228       1   24204   24225       1   24195   24207       1
   24396   24405       1   24390   24402       1   24387   24399       1   24381
   24393       1   24372   24384       1   24363   24375       1   24348   24366
       1   24339   24357       1   24330   24354       1   24327   24351       1
   24321   24342       1   24318   24336       1   24312   24333       1   24303
   24315       1   24504   24513       1   24498   24510       1   24495   24507
       1   24489   24501       1   24480   24492       1   24471   24483       1
   24456   24474       1   24447   24465       1   24438   24462       1   24435
   24459       1   24429   24450       1   24426   24444       1   24420   24441
       1   24411   24423       1   24612   24621       1   24606   24618       1
   24603   24615       1   24597   24609       1   24588   24600       1   24579
   24591       1   24564   24582       1   24555   24573       1   24546   24570
       1   24543   24567       1   24537   24558       1   24534   24552       1
   24528   24549       1   24519   24531       1   24720   24729       1   24714
   24726       1   24711   24723       1   24705   24717       1   24696   24708
       1   24687   24699       1   24672   24690       1   24663   24681       1
   24654   24678       1   24651   24675       1   24645   24666       1   24642
   24660       1   24636   24657       1   24627   24639       1   24828   24837
       1   24822   24834       1   24819   24831       1   24813   24825       1
   24804   24816       1   24795   24807       1   24780   24798       1   24771
   24789       1   24762   24786       1   24759   24783       1   24753   24774
       1   24750   24768       1   24744   24765       1   24735   24747       1
   24936   24945       1   24930   24942       1   24927   24939       1   24921
   24933       1   24912   24924       1   24903   24915       1   24888   24906
       1   24879   24897       1   24870   24894       1   24867   24891       1
   24861   24882       1   24858   24876       1   24852   24873       1   24843
   24855       1   25044   25053       1   25038   25050       1   25035   25047
       1   25029   25041       1   25020   25032       1   25011   25023       1
   24996   25014       1   24987   25005       1   24978   25002       1   24975
   24999       1   24969   24990       1   24966   24984       1   24960   24981
       1   24951   24963       1   25152   25161       1   25146   25158       1
   25143   25155       1   25137   25149       1   25128   25140       1   25119
   25131       1   25104   25122       1   25095   25113       1   25086   25110
       1   25083   25107       1   25077   25098       1   25074   25092       1
   25068   25089       1   25059   25071       1   25260   25269       1   25254
   25266       1   25251   25263       1   25245   25257       1   25236   25248
       1   25227   25239       1   25212   25230       1   25203   25221       1
   25194   25218       1   25191   25215       1   25185   25206       1   25182
   25200       1   25176   25197       1   25167   25179       1   25368   25377
       1   25362   25374       1   25359   25371       1   25353   25365       1
   25344   25356       1   25335   25347       1   25320   25338       1   25311
   25329       1   25302   25326       1   25299   25323       1   25293   25314
       1   25290   25308       1   25284   25305       1   25275   25287       1
   25476   25485       1   25470   25482       1   25467   25479       1   25461
   25473       1   25452   25464       1   25443   25455       1   25428   25446
       1   25419   25437       1   25410   25434       1   25407   25431       1
   25401   25422       1   25398   25416       1   25392   25413       1   25383
   25395       1   25584   25593       1   25578   25590       1   25575   25587
       1   25569   25581       1   25560   25572       1   25551   25563       1
   25536   25554       1   25527   25545       1   25518   25542       1   25515
   25539       1   25509   25530       1   25506   25524       1   25500   25521
       1   25491   25503       1   25692   25701       1   25686   25698       1
   25683   25695       1   25677   25689       1   25668   25680       1   25659
   25671       1   25644   25662       1   25635   25653       1   25626   25650
       1   25623   25647       1   25617   25638       1   25614   25632       1
   25608   25629       1   25599   25611       1   25800   25809       1   25794
   25806       1   25791   25803       1   25785   25797       1   25776   25788
       1   25767   25779       1   25752   25770       1   25743   25761       1
   25734   25758       1   25731   25755       1   25725   25746       1   25722
   25740       1   25716   25737       1   25707   25719       1   25908   25917
       1   25902   25914       1   25899   25911       1   25893   25905       1
   25884   25896       1   25875   25887       1   25860   25878       1   25851
   25869       1   25842   25866       1   25839   25863       1   25833   25854
       1   25830   25848       1   25824   25845       1   25815   25827       1
   26016   26025       1   26010   26022       1   26007   26019       1   26001
   26013       1   25992   26004       1   25983   25995       1   25968   25986
       1   25959   25977       1   25950   25974       1   25947   25971       1
   25941   25962       1   25938   25956       1   25932   25953       1   25923
   25935       1   26124   26133       1   26118   26130       1   26115   26127
       1   26109   26121       1   26100   26112       1   26091   26103       1
   26076   26094       1   26067   26085       1   26058   26082       1   26055
   26079       1   26049   26070       1   26046   26064       1   26040   26061
       1   26031   26043       1   26232   26241       1   26226   26238       1
   26223   26235       1   26217   26229       1   26208   26220       1   26199
   26211       1   26184   26202       1   26175   26193       1   26166   26190
       1   26163   26187       1   26157   26178       1   26154   26172       1
   26148   26169       1   26139   26151       1   26340   26349       1   26334
   26346       1   26331   26343       1   26325   26337       1   26316   26328
       1   26307   26319       1   26292   26310       1   26283   26301       1
   26274   26298       1   26271   26295       1   26265   26286       1   26262
   26280       1   26256   26277       1   26247   26259       1   26448   26457
       1   26442   26454       1   26439   26451       1   26433   26445       1
   26424   26436       1   26415   26427       1   26400   26418       1   26391
   26409       1   26382   26406       1   26379   26403       1   26373   26394
       1   26370   26388       1   26364   26385       1   26355   26367       1
   26556   26565       1   26550   26562       1   26547   26559       1   26541
   26553       1   26532   26544       1   26523   26535       1   26508   26526
       1   26499   26517       1   26490   26514       1   26487   26511       1
   26481   26502       1   26478   26496       1   26472   26493       1   26463
   26475       1   26664   26673       1   26658   26670       1   26655   26667
       1   26649   26661       1   26640   26652       1   26631   26643       1
   26616   26634       1   26607   26625       1   26598   26622       1   26595
   26619       1   26589   26610       1   26586   26604       1   26580   26601
       1   26571   26583       1   26772   26781       1   26766   26778       1
   26763   26775       1   26757   26769       1   26748   26760       1   26739
   26751       1   26724   26742       1   26715   26733       1   26706   26730
       1   26703   26727       1   26697   26718       1   26694   26712       1
   26688   26709       1   26679   26691       1   26880   26889       1   26874
   26886       1   26871   26883       1   26865   26877       1   26856   26868
       1   26847   26859       1   26832   26850       1   26823   26841       1
   26814   26838       1   26811   26835       1   26805   26826       1   26802
   26820       1   26796   26817       1   26787   26799       1   26988   26997
       1   26982   26994       1   26979   26991       1   26973   26985       1
   26964   26976       1   26955   26967       1   26940   26958       1   26931
   26949       1   26922   26946       1   26919   26943       1   26913   26934
       1   26910   26928       1   26904   26925       1   26895   26907       1
   27096   27105       1   27090   27102       1   27087   27099       1   27081
   27093       1   27072   27084       1   27063   27075       1   27048   27066
       1   27039   27057       1   27030   27054       1   27027   27051       1
   27021   27042       1   27018   27036       1   27012   27033       1   27003
   27015       1   27204   27213       1   27198   27210       1   27195   27207
       1   27189   27201       1   27180   27192       1   27171   27183       1
   27156   27174       1   27147   27165       1   27138   27162       1   27135
   27159       1   27129   27150       1   27126   27144       1   27120   27141
       1   27111   27123       1   27312   27321       1   27306   27318       1
   27303   27315       1   27297   27309       1   27288   27300       1   27279
   27291       1   27264   27282       1   27255   27273       1   27246   27270
       1   27243   27267       1   27237   27258       1   27234   27252       1
   27228   27249       1   27219   27231       1   27420   27429       1   27414
   27426       1   27411   27423       1   27405   27417       1   27396   27408
       1   27387   27399       1   27372   27390       1   27363   27381       1
   27354   27378       1   27351   27375       1   27345   27366       1   27342
   27360       1   27336   27357       1   27327   27339       1   27528   27537
       1   27522   27534       1   27519   27531       1   27513   27525       1
   27504   27516       1   27495   27507       1   27480   27498       1   27471
   27489       1   27462   27486       1   27459   27483       1   27453   27474
       1   27450   27468       1   27444   27465       1   27435   27447       1
   27636   27645       1   27630   27642       1   27627   27639       1   27621
   27633       1   27612   27624       1   27603   27615       1   27588   27606
       1   27579   27597       1   27570   27594       1   27567   27591       1
   27561   27582       1   27558   27576       1   27552   27573       1   27543
   27555       1   27744   27753       1   27738   27750       1   27735   27747
       1   27729   27741       1   27720   27732       1   27711   27723       1
   27696   27714       1   27687   27705       1   27678   27702       1   27675
   27699       1   27669   27690       1   27666   27684       1   27660   27681
       1   27651   27663       1   27852   27861       1   27846   27858       1
   27843   27855       1   27837   27849       1   27828   27840       1   27819
   27831       1   27804   27822       1   27795   27813       1   27786   27810
       1   27783   27807       1   27777   27798       1   27774   27792       1
   27768   27789       1   27759   27771       1   27960   27969       1   27954
   27966       1   27951   27963       1   27945   27957       1   27936   27948
       1   27927   27939       1   27912   27930       1   27903   27921       1
   27894   27918       1   27891   27915       1   27885   27906       1   27882
   27900       1   27876   27897       1   27867   27879       1   28068   28077
       1   28062   28074       1   28059   28071       1   28053   28065       1
   28044   28056       1   28035   28047       1   28020   28038       1   28011
   28029       1   28002   28026       1   27999   28023       1   27993   28014
       1   27990   28008       1   27984   28005       1   27975   27987       1
   28176   28185       1   28170   28182       1   28167   28179       1   28161
   28173       1   28152   28164       1   28143   28155       1   28128   28146
       1   28119   28137       1   28110   28134       1   28107   28131       1
   28101   28122       1   28098   28116       1   28092   28113       1   28083
   28095       1   28284   28293       1   28278   28290       1   28275   28287
       1   28269   28281       1   28260   28272       1   28251   28263       1
   28236   28254       1   28227   28245       1   28218   28242       1   28215
   28239       1   28209   28230       1   28206   28224       1   28200   28221
       1   28191   28203       1   28392   28401       1   28386   28398       1
   28383   28395       1   28377   28389       1   28368   28380       1   28359
   28371       1   28344   28362       1   28335   28353       1   28326   28350
       1   28323   28347       1   28317   28338       1   28314   28332       1
   28308   28329       1   28299   28311       1   28500   28509       1   28494
   28506       1   28491   28503       1   28485   28497       1   28476   28488
       1   28467   28479       1   28452   28470       1   28443   28461       1
   28434   28458       1   28431   28455       1   28425   28446       1   28422
   28440       1   28416   28437       1   28407   28419       1   28608   28617
       1   28602   28614       1   28599   28611       1   28593   28605       1
   28584   28596       1   28575   28587       1   28560   28578       1   28551
   28569       1   28542   28566       1   28539   28563       1   28533   28554
       1   28530   28548       1   28524   28545       1   28515   28527       1
   28716   28725       1   28710   28722       1   28707   28719       1   28701
   28713       1   28692   28704       1   28683   28695       1   28668   28686
       1   28659   28677       1   28650   28674       1   28647   28671       1
   28641   28662       1   28638   28656       1   28632   28653       1   28623
   28635       1   28824   28833       1   28818   28830       1   28815   28827
       1   28809   28821       1   28800   28812       1   28791   28803       1
   28776   28794       1   28767   28785       1   28758   28782       1   28755
   28779       1   28749   28770       1   28746   28764       1   28740   28761
       1   28731   28743       1   28932   28941       1   28926   28938       1
   28923   28935       1   28917   28929       1   28908   28920       1   28899
   28911       1   28884   28902       1   28875   28893       1   28866   28890
       1   28863   28887       1   28857   28878       1   28854   28872       1
   28848   28869       1   28839   28851       1   29040   29049       1   29034
   29046       1   29031   29043       1   29025   29037       1   29016   29028
       1   29007   29019       1   28992   29010       1   28983   29001       1
   28974   28998       1   28971   28995       1   28965   28986       1   28962
   28980       1   28956   28977       1   28947   28959       1   29148   29157
       1   29142   29154       1   29139   29151       1   29133   29145       1
   29124   29136       1   29115   29127       1   29100   29118       1   29091
   29109       1   29082   29106       1   29079   29103       1   29073   29094
       1   29070   29088       1   29064   29085       1   29055   29067       1
   29256   29265       1   29250   29262       1   29247   29259       1   29241
   29253       1   29232   29244       1   29223   29235       1   29208   29226
       1   29199   29217       1   29190   29214       1   29187   29211       1
   29181   29202       1   29178   29196       1   29172   29193       1   29163
   29175       1   29364   29373       1   29358   29370       1   29355   29367
       1   29349   29361       1   29340   29352       1   29331   29343       1
   29316   29334       1   29307   29325       1   29298   29322       1   29295
   29319       1   29289   29310       1   29286   29304       1   29280   29301
       1   29271   29283       1   29472   29481       1   29466   29478       1
   29463   29475       1   29457   29469       1   29448   29460       1   29439
   29451       1   29424   29442       1   29415   29433       1   29406   29430
       1   29403   29427       1   29397   29418       1   29394   29412       1
   29388   29409       1   29379   29391       1   29580   29589       1   29574
   29586       1   29571   29583       1   29565   29577       1   29556   29568
       1   29547   29559       1   29532   29550       1   29523   29541       1
   29514   29538       1   29511   29535       1   29505   29526       1   29502
   29520       1   29496   29517       1   29487   29499       1   29688   29697
       1   29682   29694       1   29679   29691       1   29673   29685       1
   29664   29676       1   29655   29667       1   29640   29658       1   29631
   29649       1   29622   29646       1   29619   29643       1   29613   29634
       1   29610   29628       1   29604   29625       1   29595   29607       1
   29796   29805       1   29790   29802       1   29787   29799       1   29781
   29793       1   29772   29784       1   29763   29775       1   29748   29766
       1   29739   29757       1   29730   29754       1   29727   29751       1
   29721   29742       1   29718   29736       1   29712   29733       1   29703
   29715       1   29904   29913       1   29898   29910       1   29895   29907
       1   29889   29901       1   29880   29892       1   29871   29883       1
   29856   29874       1   29847   29865       1   29838   29862       1   29835
   29859       1   29829   29850       1   29826   29844       1   29820   29841
       1   29811   29823       1   30012   30021       1   30006   30018       1
   30003   30015       1   29997   30009       1   29988   30000       1   29979
   29991       1   29964   29982       1   29955   29973       1   29946   29970
       1   29943   29967       1   29937   29958       1   29934   29952       1
   29928   29949       1   29919   29931       1   30120   30129       1   30114
   30126       1   30111   30123       1   30105   30117       1   30096   30108
       1   30087   30099       1   30072   30090       1   30063   30081       1
   30054   30078       1   30051   30075       1   30045   30066       1   30042
   30060       1   30036   30057       1   30027   30039       1   30228   30237
       1   30222   30234       1   30219   30231       1   30213   30225       1
   30204   30216       1   30195   30207       1   30180   30198       1   30171
   30189       1   30162   30186       1   30159   30183       1   30153   30174
       1   30150   30168       1   30144   30165       1   30135   30147       1
   30336   30345       1   30330   30342       1   30327   30339       1   30321
   30333       1   30312   30324       1   30303   30315       1   30288   30306
       1   30279   30297       1   30270   30294       1   30267   30291       1
   30261   30282       1   30258   30276       1   30252   30273       1   30243
   30255       1   30444   30453       1   30438   30450       1   30435   30447
       1   30429   30441       1   30420   30432       1   30411   30423       1
   30396   30414       1   30387   30405       1   30378   30402       1   30375
   30399       1   30369   30390       1   30366   30384       1   30360   30381
       1   30351   30363       1   30552   30561       1   30546   30558       1
   30543   30555       1   30537   30549       1   30528   30540       1   30519
   30531       1   30504   30522       1   30495   30513       1   30486   30510
       1   30483   30507       1   30477   30498       1   30474   30492       1
   30468   30489       1   30459   30471       1   30660   30669       1   30654
   30666       1   30651   30663       1   30645   30657       1   30636   30648
       1   30627   30639       1   30612   30630       1   30603   30621       1
   30594   30618       1   30591   30615       1   30585   30606       1   30582
   30600       1   30576   30597       1   30567   30579       1   30768   30777
       1   30762   30774       1   30759   30771       1   30753   30765       1
   30744   30756       1   30735   30747       1   30720   30738       1   30711
   30729       1   30702   30726       1   30699   30723       1   30693   30714
       1   30690   30708       1   30684   30705       1   30675   30687       1
   30876   30885       1   30870   30882       1   30867   30879       1   30861
   30873       1   30852   30864       1   30843   30855       1   30828   30846
       1   30819   30837       1   30810   30834       1   30807   30831       1
   30801   30822       1   30798   30816       1   30792   30813       1   30783
   30795       1   30984   30993       1   30978   30990       1   30975   30987
       1   30969   30981       1   30960   30972       1   30951   30963       1
   30936   30954       1   30927   30945       1   30918   30942       1   30915
   30939       1   30909   30930       1   30906   30924       1   30900   30921
       1   30891   30903       1   31092   31101       1   31086   31098       1
   31083   31095       1   31077   31089       1   31068   31080       1   31059
   31071       1   31044   31062       1   31035   31053       1   31026   31050
       1   31023   31047       1   31017   31038       1   31014   31032       1
   31008   31029       1   30999   31011       1   31200   31209       1   31194
   31206       1   31191   31203       1   31185   31197       1   31176   31188
       1   31167   31179       1   31152   31170       1   31143   31161       1
   31134   31158       1   31131   31155       1   31125   31146       1   31122
   31140       1   31116   31137       1   31107   31119       1   31308   31317
       1   31302   31314       1   31299   31311       1   31293   31305       1
   31284   31296       1   31275   31287       1   31260   31278       1   31251
   31269       1   31242   31266       1   31239   31263       1   31233   31254
       1   31230   31248       1   31224   31245       1   31215   31227       1
   31416   31425       1   31410   31422       1   31407   31419       1   31401
   31413       1   31392   31404       1   31383   31395       1   31368   31386
       1   31359   31377       1   31350   31374       1   31347   31371       1
   31341   31362       1   31338   31356       1   31332   31353       1   31323
   31335       1   31524   31533       1   31518   31530       1   31515   31527
       1   31509   31521       1   31500   31512       1   31491   31503       1
   31476   31494       1   31467   31485       1   31458   31482       1   31455
   31479       1   31449   31470       1   31446   31464       1   31440   31461
       1   31431   31443       1   31632   31641       1   31626   31638       1
   31623   31635       1   31617   31629       1   31608   31620       1   31599
   31611       1   31584   31602       1   31575   31593       1   31566   31590
       1   31563   31587       1   31557   31578       1   31554   31572       1
   31548   31569       1   31539   31551       1   31740   31749       1   31734
   31746       1   31731   31743       1   31725   31737       1   31716   31728
       1   31707   31719       1   31692   31710       1   31683   31701       1
   31674   31698       1   31671   31695       1   31665   31686       1   31662
   31680       1   31656   31677       1   31647   31659       1   31848   31857
       1   31842   31854       1   31839   31851       1   31833   31845       1
   31824   31836       1   31815   31827       1   31800   31818       1   31791
   31809       1   31782   31806       1   31779   31803       1   31773   31794
       1   31770   31788       1   31764   31785       1   31755   31767       1
   31956   31965       1   31950   31962       1   31947   31959       1   31941
   31953       1   31932   31944       1   31923   31935       1   31908   31926
       1   31899   31917       1   31890   31914       1   31887   31911       1
   31881   31902       1   31878   31896       1   31872   31893       1   31863
   31875       1   32064   32073       1   32058   32070       1   32055   32067
       1   32049   32061       1   32040   32052       1   32031   32043       1
   32016   32034       1   32007   32025       1   31998   32022       1   31995
   32019       1   31989   32010       1   31986   32004       1   31980   32001
       1   31971   31983       1   32172   32181       1   32166   32178       1
   32163   32175       1   32157   32169       1   32148   32160       1   32139
   32151       1   32124   32142       1   32115   32133       1   32106   32130
       1   32103   32127       1   32097   32118       1   32094   32112       1
   32088   32109       1   32079   32091       1   32280   32289       1   32274
   32286       1   32271   32283       1   32265   32277       1   32256   32268
       1   32247   32259       1   32232   32250       1   32223   32241       1
   32214   32238       1   32211   32235       1   32205   32226       1   32202
   32220       1   32196   32217       1   32187   32199       1   32388   32397
       1   32382   32394       1   32379   32391       1   32373   32385       1
   32364   32376       1   32355   32367       1   32340   32358       1   32331
   32349       1   32322   32346       1   32319   32343       1   32313   32334
       1   32310   32328       1   32304   32325       1   32295   32307       1
   32496   32505       1   32490   32502       1   32487   32499       1   32481
   32493       1   32472   32484       1   32463   32475       1   32448   32466
       1   32439   32457       1   32430   32454       1   32427   32451       1
   32421   32442       1   32418   32436       1   32412   32433       1   32403
   32415       1   32604   32613       1   32598   32610       1   32595   32607
       1   32589   32601       1   32580   32592       1   32571   32583       1
   32556   32574       1   32547   32565       1   32538   32562       1   32535
   32559       1   32529   32550       1   32526   32544       1   32520   32541
       1   32511   32523       1   32712   32721       1   32706   32718       1
   32703   32715       1   32697   32709       1   32688   32700       1   32679
   32691       1   32664   32682       1   32655   32673       1   32646   32670
       1   32643   32667       1   32637   32658       1   32634   32652       1
   32628   32649       1   32619   32631       1   32820   32829       1   32814
   32826       1   32811   32823       1   32805   32817       1   32796   32808
       1   32787   32799       1   32772   32790       1   32763   32781       1
   32754   32778       1   32751   32775       1   32745   32766       1   32742
   32760       1   32736   32757       1   32727   32739       1   32928   32937
       1   32922   32934       1   32919   32931       1   32913   32925       1
   32904   32916       1   32895   32907       1   32880   32898       1   32871
   32889       1   32862   32886       1   32859   32883       1   32853   32874
       1   32850   32868       1   32844   32865       1   32835   32847       1
   33036   33045       1   33030   33042       1   33027   33039       1   33021
   33033       1   33012   33024       1   33003   33015       1   32988   33006
       1   32979   32997       1   32970   32994       1   32967   32991       1
   32961   32982       1   32958   32976       1   32952   32973       1   32943
   32955       1   33144   33153       1   33138   33150       1   33135   33147
       1   33129   33141       1   33120   33132       1   33111   33123       1
   33096   33114       1   33087   33105       1   33078   33102       1   33075
   33099       1   33069   33090       1   33066   33084       1   33060   33081
       1   33051   33063       1   33252   33261       1   33246   33258       1
   33243   33255       1   33237   33249       1   33228   33240       1   33219
   33231       1   33204   33222       1   33195   33213       1   33186   33210
       1   33183   33207       1   33177   33198       1   33174   33192       1
   33168   33189       1   33159   33171       1   33360   33369       1   33354
   33366       1   33351   33363       1   33345   33357       1   33336   33348
       1   33327   33339       1   33312   33330       1   33303   33321       1
   33294   33318       1   33291   33315       1   33285   33306       1   33282
   33300       1   33276   33297       1   33267   33279       1   33468   33477
       1   33462   33474       1   33459   33471       1   33453   33465       1
   33444   33456       1   33435   33447       1   33420   33438       1   33411
   33429       1   33402   33426       1   33399   33423       1   33393   33414
       1   33390   33408       1   33384   33405       1   33375   33387       1
   33576   33585       1   33570   33582       1   33567   33579       1   33561
   33573       1   33552   33564       1   33543   33555       1   33528   33546
       1   33519   33537       1   33510   33534       1   33507   33531       1
   33501   33522       1   33498   33516       1   33492   33513       1   33483
   33495       1   33684   33693       1   33678   33690       1   33675   33687
       1   33669   33681       1   33660   33672       1   33651   33663       1
   33636   33654       1   33627   33645       1   33618   33642       1   33615
   33639       1   33609   33630       1   33606   33624       1   33600   33621
       1   33591   33603       1   33792   33801       1   33786   33798       1
   33783   33795       1   33777   33789       1   33768   33780       1   33759
   33771       1   33744   33762       1   33735   33753       1   33726   33750
       1   33723   33747       1   33717   33738       1   33714   33732       1
   33708   33729       1   33699   33711       1   33900   33909       1   33894
   33906       1   33891   33903       1   33885   33897       1   33876   33888
       1   33867   33879       1   33852   33870       1   33843   33861       1
   33834   33858       1   33831   33855       1   33825   33846       1   33822
   33840       1   33816   33837       1   33807   33819       1   34008   34017
       1   34002   34014       1   33999   34011       1   33993   34005       1
   33984   33996       1   33975   33987       1   33960   33978       1   33951
   33969       1   33942   33966       1   33939   33963       1   33933   33954
       1   33930   33948       1   33924   33945       1   33915   33927       1
   34116   34125       1   34110   34122       1   34107   34119       1   34101
   34113       1   34092   34104       1   34083   34095       1   34068   34086
       1   34059   34077       1   34050   34074       1   34047   34071       1
   34041   34062       1   34038   34056       1   34032   34053       1   34023
   34035       1   34224   34233       1   34218   34230       1   34215   34227
       1   34209   34221       1   34200   34212       1   34191   34203       1
   34176   34194       1   34167   34185       1   34158   34182       1   34155
   34179       1   34149   34170       1   34146   34164       1   34140   34161
       1   34131   34143       1   34332   34341       1   34326   34338       1
   34323   34335       1   34317   34329       1   34308   34320       1   34299
   34311       1   34284   34302       1   34275   34293       1   34266   34290
       1   34263   34287       1   34257   34278       1   34254   34272       1
   34248   34269       1   34239   34251       1   34440   34449       1   34434
   34446       1   34431   34443       1   34425   34437       1   34416   34428
       1   34407   34419       1   34392   34410       1   34383   34401       1
   34374   34398       1   34371   34395       1   34365   34386       1   34362
   34380       1   34356   34377       1   34347   34359       1   34548   34557
       1   34542   34554       1   34539   34551       1   34533   34545       1
   34524   34536       1   34515   34527       1   34500   34518       1   34491
   34509       1   34482   34506       1   34479   34503       1   34473   34494
       1   34470   34488       1   34464   34485       1   34455   34467       1
   34656   34665       1   34650   34662       1   34647   34659       1   34641
   34653       1   34632   34644       1   34623   34635       1   34608   34626
       1   34599   34617       1   34590   34614       1   34587   34611       1
   34581   34602       1   34578   34596       1   34572   34593       1   34563
   34575       1   34764   34773       1   34758   34770       1   34755   34767
       1   34749   34761       1   34740   34752       1   34731   34743       1
   34716   34734       1   34707   34725       1   34698   34722       1   34695
   34719       1   34689   34710       1   34686   34704       1   34680   34701
       1   34671   34683       1   34872   34881       1   34866   34878       1
   34863   34875       1   34857   34869       1   34848   34860       1   34839
   34851       1   34824   34842       1   34815   34833       1   34806   34830
       1   34803   34827       1   34797   34818       1   34794   34812       1
   34788   34809       1   34779   34791       1   34980   34989       1   34974
   34986       1   34971   34983       1   34965   34977       1   34956   34968
       1   34947   34959       1   34932   34950       1   34923   34941       1
   34914   34938       1   34911   34935       1   34905   34926       1   34902
   34920       1   34896   34917       1   34887   34899       1   35088   35097
       1   35082   35094       1   35079   35091       1   35073   35085       1
   35064   35076       1   35055   35067       1   35040   35058       1   35031
   35049       1   35022   35046       1   35019   35043       1   35013   35034
       1   35010   35028       1   35004   35025       1   34995   35007       1
   35196   35205       1   35190   35202       1   35187   35199       1   35181
   35193       1   35172   35184       1   35163   35175       1   35148   35166
       1   35139   35157       1   35130   35154       1   35127   35151       1
   35121   35142       1   35118   35136       1   35112   35133       1   35103
   35115       1   35304   35313       1   35298   35310       1   35295   35307
       1   35289   35301       1   35280   35292       1   35271   35283       1
   35256   35274       1   35247   35265       1   35238   35262       1   35235
   35259       1   35229   35250       1   35226   35244       1   35220   35241
       1   35211   35223       1   35412   35421       1   35406   35418       1
   35403   35415       1   35397   35409       1   35388   35400       1   35379
   35391       1   35364   35382       1   35355   35373       1   35346   35370
       1   35343   35367       1   35337   35358       1   35334   35352       1
   35328   35349       1   35319   35331       1   35520   35529       1   35514
   35526       1   35511   35523       1   35505   35517       1   35496   35508
       1   35487   35499       1   35472   35490       1   35463   35481       1
   35454   35478       1   35451   35475       1   35445   35466       1   35442
   35460       1   35436   35457       1   35427   35439       1   35628   35637
       1   35622   35634       1   35619   35631       1   35613   35625       1
   35604   35616       1   35595   35607       1   35580   35598       1   35571
   35589       1   35562   35586       1   35559   35583       1   35553   35574
       1   35550   35568       1   35544   35565       1   35535   35547       1
   35736   35745       1   35730   35742       1   35727   35739       1   35721
   35733       1   35712   35724       1   35703   35715       1   35688   35706
       1   35679   35697       1   35670   35694       1   35667   35691       1
   35661   35682       1   35658   35676       1   35652   35673       1   35643
   35655       1   35844   35853       1   35838   35850       1   35835   35847
       1   35829   35841       1   35820   35832       1   35811   35823       1
   35796   35814       1   35787   35805       1   35778   35802       1   35775
   35799       1   35769   35790       1   35766   35784       1   35760   35781
       1   35751   35763       1   35952   35961       1   35946   35958       1
   35943   35955       1   35937   35949       1   35928   35940       1   35919
   35931       1   35904   35922       1   35895   35913       1   35886   35910
       1   35883   35907       1   35877   35898       1   35874   35892       1
   35868   35889       1   35859   35871       1   36060   36069       1   36054
   36066       1   36051   36063       1   36045   36057       1   36036   36048
       1   36027   36039       1   36012   36030       1   36003   36021       1
   35994   36018       1   35991   36015       1   35985   36006       1   35982
   36000       1   35976   35997       1   35967   35979       1   36168   36177
       1   36162   36174       1   36159   36171       1   36153   36165       1
   36144   36156       1   36135   36147       1   36120   36138       1   36111
   36129       1   36102   36126       1   36099   36123       1   36093   36114
       1   36090   36108       1   36084   36105       1   36075   36087       1
   36276   36285       1   36270   36282       1   36267   36279       1   36261
   36273       1   36252   36264       1   36243   36255       1   36228   36246
       1   36219   36237       1   36210   36234       1   36207   36231       1
   36201   36222       1   36198   36216       1   36192   36213       1   36183
   36195       1   36384   36393       1   36378   36390       1   36375   36387
       1   36369   36381       1   36360   36372       1   36351   36363       1
   36336   36354       1   36327   36345       1   36318   36342       1   36315
   36339       1   36309   36330       1   36306   36324       1   36300   36321
       1   36291   36303       1   36492   36501       1   36486   36498       1
   36483   36495       1   36477   36489       1   36468   36480       1   36459
   36471       1   36444   36462       1   36435   36453       1   36426   36450
       1   36423   36447       1   36417   36438       1   36414   36432       1
   36408   36429       1   36399   36411       1   36600   36609       1   36594
   36606       1   36591   36603       1   36585   36597       1   36576   36588
       1   36567   36579       1   36552   36570       1   36543   36561       1
   36534   36558       1   36531   36555       1   36525   36546       1   36522
   36540       1   36516   36537       1   36507   36519       1   36708   36717
       1   36702   36714       1   36699   36711       1   36693   36705       1
   36684   36696       1   36675   36687       1   36660   36678       1   36651
   36669       1   36642   36666       1   36639   36663       1   36633   36654
       1   36630   36648       1   36624   36645       1   36615   36627       1
   36816   36825       1   36810   36822       1   36807   36819       1   36801
   36813       1   36792   36804       1   36783   36795       1   36768   36786
       1   36759   36777       1   36750   36774       1   36747   36771       1
   36741   36762       1   36738   36756       1   36732   36753       1   36723
   36735       1   36924   36933       1   36918   36930       1   36915   36927
       1   36909   36921       1   36900   36912       1   36891   36903       1
   36876   36894       1   36867   36885       1   36858   36882       1   36855
   36879       1   36849   36870       1   36846   36864       1   36840   36861
       1   36831   36843       1   37032   37041       1   37026   37038       1
   37023   37035       1   37017   37029       1   37008   37020       1   36999
   37011       1   36984   37002       1   36975   36993       1   36966   36990
       1   36963   36987       1   36957   36978       1   36954   36972       1
   36948   36969       1   36939   36951       1   37140   37149       1   37134
   37146       1   37131   37143       1   37125   37137       1   37116   37128
       1   37107   37119       1   37092   37110       1   37083   37101       1
   37074   37098       1   37071   37095       1   37065   37086       1   37062
   37080       1   37056   37077       1   37047   37059       1   37248   37257
       1   37242   37254       1   37239   37251       1   37233   37245       1
   37224   37236       1   37215   37227       1   37200   37218       1   37191
   37209       1   37182   37206       1   37179   37203       1   37173   37194
       1   37170   37188       1   37164   37185       1   37155   37167       1
   37356   37365       1   37350   37362       1   37347   37359       1   37341
   37353       1   37332   37344       1   37323   37335       1   37308   37326
       1   37299   37317       1   37290   37314       1   37287   37311       1
   37281   37302       1   37278   37296       1   37272   37293       1   37263
   37275       1   37464   37473       1   37458   37470       1   37455   37467
       1   37449   37461       1   37440   37452       1   37431   37443       1
   37416   37434       1   37407   37425       1   37398   37422       1   37395
   37419       1   37389   37410       1   37386   37404       1   37380   37401
       1   37371   37383       1   37572   37581       1   37566   37578       1
   37563   37575       1   37557   37569       1   37548   37560       1   37539
   37551       1   37524   37542       1   37515   37533       1   37506   37530
       1   37503   37527       1   37497   37518       1   37494   37512       1
   37488   37509       1   37479   37491       1   37680   37689       1   37674
   37686       1   37671   37683       1   37665   37677       1   37656   37668
       1   37647   37659       1   37632   37650       1   37623   37641       1
   37614   37638       1   37611   37635       1   37605   37626       1   37602
   37620       1   37596   37617       1   37587   37599       1   37788   37797
       1   37782   37794       1   37779   37791       1   37773   37785       1
   37764   37776       1   37755   37767       1   37740   37758       1   37731
   37749       1   37722   37746       1   37719   37743       1   37713   37734
       1   37710   37728       1   37704   37725       1   37695   37707       1
   37896   37905       1   37890   37902       1   37887   37899       1   37881
   37893       1   37872   37884       1   37863   37875       1   37848   37866
       1   37839   37857       1   37830   37854       1   37827   37851       1
   37821   37842       1   37818   37836       1   37812   37833       1   37803
   37815       1   38004   38013       1   37998   38010       1   37995   38007
       1   37989   38001       1   37980   37992       1   37971   37983       1
   37956   37974       1   37947   37965       1   37938   37962       1   37935
   37959       1   37929   37950       1   37926   37944       1   37920   37941
       1   37911   37923       1   38112   38121       1   38106   38118       1
   38103   38115       1   38097   38109       1   38088   38100       1   38079
   38091       1   38064   38082       1   38055   38073       1   38046   38070
       1   38043   38067       1   38037   38058       1   38034   38052       1
   38028   38049       1   38019   38031       1   38220   38229       1   38214
   38226       1   38211   38223       1   38205   38217       1   38196   38208
       1   38187   38199       1   38172   38190       1   38163   38181       1
   38154   38178       1   38151   38175       1   38145   38166       1   38142
   38160       1   38136   38157       1   38127   38139       1   38328   38337
       1   38322   38334       1   38319   38331       1   38313   38325       1
   38304   38316       1   38295   38307       1   38280   38298       1   38271
   38289       1   38262   38286       1   38259   38283       1   38253   38274
       1   38250   38268       1   38244   38265       1   38235   38247       1
   38436   38445       1   38430   38442       1   38427   38439       1   38421
   38433       1   38412   38424       1   38403   38415       1   38388   38406
       1   38379   38397       1   38370   38394       1   38367   38391       1
   38361   38382       1   38358   38376       1   38352   38373       1   38343
   38355       1   38544   38553       1   38538   38550       1   38535   38547
       1   38529   38541       1   38520   38532       1   38511   38523       1
   38496   38514       1   38487   38505       1   38478   38502       1   38475
   38499       1   38469   38490       1   38466   38484       1   38460   38481
       1   38451   38463       1   38652   38661       1   38646   38658       1
   38643   38655       1   38637   38649       1   38628   38640       1   38619
   38631       1   38604   38622       1   38595   38613       1   38586   38610
       1   38583   38607       1   38577   38598       1   38574   38592       1
   38568   38589       1   38559   38571       1   38760   38769       1   38754
   38766       1   38751   38763       1   38745   38757       1   38736   38748
       1   38727   38739       1   38712   38730       1   38703   38721       1
   38694   38718       1   38691   38715       1   38685   38706       1   38682
   38700       1   38676   38697       1   38667   38679       1   38868   38877
       1   38862   38874       1   38859   38871       1   38853   38865       1
   38844   38856       1   38835   38847       1   38820   38838       1   38811
   38829       1   38802   38826       1   38799   38823       1   38793   38814
       1   38790   38808       1   38784   38805       1   38775   38787       1
   38976   38985       1   38970   38982       1   38967   38979       1   38961
   38973       1   38952   38964       1   38943   38955       1   38928   38946
       1   38919   38937       1   38910   38934       1   38907   38931       1
   38901   38922       1   38898   38916       1   38892   38913       1   38883
   38895       1   39084   39093       1   39078   39090       1   39075   39087
       1   39069   39081       1   39060   39072       1   39051   39063       1
   39036   39054       1   39027   39045       1   39018   39042       1   39015
   39039       1   39009   39030       1   39006   39024       1   39000   39021
       1   38991   39003       1   39192   39201       1   39186   39198       1
   39183   39195       1   39177   39189       1   39168   39180       1   39159
   39171       1   39144   39162       1   39135   39153       1   39126   39150
       1   39123   39147       1   39117   39138       1   39114   39132       1
   39108   39129       1   39099   39111       1   39300   39309       1   39294
   39306       1   39291   39303       1   39285   39297       1   39276   39288
       1   39267   39279       1   39252   39270       1   39243   39261       1
   39234   39258       1   39231   39255       1   39225   39246       1   39222
   39240       1   39216   39237       1   39207   39219       1   39408   39417
       1   39402   39414       1   39399   39411       1   39393   39405       1
   39384   39396       1   39375   39387       1   39360   39378       1   39351
   39369       1   39342   39366       1   39339   39363       1   39333   39354
       1   39330   39348       1   39324   39345       1   39315   39327       1
   39516   39525       1   39510   39522       1   39507   39519       1   39501
   39513       1   39492   39504       1   39483   39495       1   39468   39486
       1   39459   39477       1   39450   39474       1   39447   39471       1
   39441   39462       1   39438   39456       1   39432   39453       1   39423
   39435       1   39624   39633       1   39618   39630       1   39615   39627
       1   39609   39621       1   39600   39612       1   39591   39603       1
   39576   39594       1   39567   39585       1   39558   39582       1   39555
   39579       1   39549   39570       1   39546   39564       1   39540   39561
       1   39531   39543       1   39732   39741       1   39726   39738       1
   39723   39735       1   39717   39729       1   39708   39720       1   39699
   39711       1   39684   39702       1   39675   39693       1   39666   39690
       1   39663   39687       1   39657   39678       1   39654   39672       1
   39648   39669       1   39639   39651       1   39840   39849       1   39834
   39846       1   39831   39843       1   39825   39837       1   39816   39828
       1   39807   39819       1   39792   39810       1   39783   39801       1
   39774   39798       1   39771   39795       1   39765   39786       1   39762
   39780       1   39756   39777       1   39747   39759       1   39948   39957
       1   39942   39954       1   39939   39951       1   39933   39945       1
   39924   39936       1   39915   39927       1   39900   39918       1   39891
   39909       1   39882   39906       1   39879   39903       1   39873   39894
       1   39870   39888       1   39864   39885       1   39855   39867       1
   40056   40065       1   40050   40062       1   40047   40059       1   40041
   40053       1   40032   40044       1   40023   40035       1   40008   40026
       1   39999   40017       1   39990   40014       1   39987   40011       1
   39981   40002       1   39978   39996       1   39972   39993       1   39963
   39975       1   40164   40173       1   40158   40170       1   40155   40167
       1   40149   40161       1   40140   40152       1   40131   40143       1
   40116   40134       1   40107   40125       1   40098   40122       1   40095
   40119       1   40089   40110       1   40086   40104       1   40080   40101
       1   40071   40083       1   40272   40281       1   40266   40278       1
   40263   40275       1   40257   40269       1   40248   40260       1   40239
   40251       1   40224   40242       1   40215   40233       1   40206   40230
       1   40203   40227       1   40197   40218       1   40194   40212       1
   40188   40209       1   40179   40191       1   40380   40389       1   40374
   40386       1   40371   40383       1   40365   40377       1   40356   40368
       1   40347   40359       1   40332   40350       1   40323   40341       1
   40314   40338       1   40311   40335       1   40305   40326       1   40302
   40320       1   40296   40317       1   40287   40299       1   40488   40497
       1   40482   40494       1   40479   40491       1   40473   40485       1
   40464   40476       1   40455   40467       1   40440   40458       1   40431
   40449       1   40422   40446       1   40419   40443       1   40413   40434
       1   40410   40428       1   40404   40425       1   40395   40407       1
   40596   40605       1   40590   40602       1   40587   40599       1   40581
   40593       1   40572   40584       1   40563   40575       1   40548   40566
       1   40539   40557       1   40530   40554       1   40527   40551       1
   40521   40542       1   40518   40536       1   40512   40533       1   40503
   40515       1   40704   40713       1   40698   40710       1   40695   40707
       1   40689   40701       1   40680   40692       1   40671   40683       1
   40656   40674       1   40647   40665       1   40638   40662       1   40635
   40659       1   40629   40650       1   40626   40644       1   40620   40641
       1   40611   40623       1   40812   40821       1   40806   40818       1
   40803   40815       1   40797   40809       1   40788   40800       1   40779
   40791       1   40764   40782       1   40755   40773       1   40746   40770
       1   40743   40767       1   40737   40758       1   40734   40752       1
   40728   40749       1   40719   40731       1   40920   40929       1   40914
   40926       1   40911   40923       1   40905   40917       1   40896   40908
       1   40887   40899       1   40872   40890       1   40863   40881       1
   40854   40878       1   40851   40875       1   40845   40866       1   40842
   40860       1   40836   40857       1   40827   40839       1   41028   41037
       1   41022   41034       1   41019   41031       1   41013   41025       1
   41004   41016       1   40995   41007       1   40980   40998       1   40971
   40989       1   40962   40986       1   40959   40983       1   40953   40974
       1   40950   40968       1   40944   40965       1   40935   40947       1
   41136   41145       1   41130   41142       1   41127   41139       1   41121
   41133       1   41112   41124       1   41103   41115       1   41088   41106
       1   41079   41097       1   41070   41094       1   41067   41091       1
   41061   41082       1   41058   41076       1   41052   41073       1   41043
   41055       1   41244   41253       1   41238   41250       1   41235   41247
       1   41229   41241       1   41220   41232       1   41211   41223       1
   41196   41214       1   41187   41205       1   41178   41202       1   41175
   41199       1   41169   41190       1   41166   41184       1   41160   41181
       1   41151   41163       1   41352   41361       1   41346   41358       1
   41343   41355       1   41337   41349       1   41328   41340       1   41319
   41331       1   41304   41322       1   41295   41313       1   41286   41310
       1   41283   41307       1   41277   41298       1   41274   41292       1
   41268   41289       1   41259   41271       1   41460   41469       1   41454
   41466       1   41451   41463       1   41445   41457       1   41436   41448
       1   41427   41439       1   41412   41430       1   41403   41421       1
   41394   41418       1   41391   41415       1   41385   41406       1   41382
   41400       1   41376   41397       1   41367   41379       1   41568   41577
       1   41562   41574       1   41559   41571       1   41553   41565       1
   41544   41556       1   41535   41547       1   41520   41538       1   41511
   41529       1   41502   41526       1   41499   41523       1   41493   41514
       1   41490   41508       1   41484   41505       1   41475   41487       1
   41676   41685       1   41670   41682       1   41667   41679       1   41661
   41673       1   41652   41664       1   41643   41655       1   41628   41646
       1   41619   41637       1   41610   41634       1   41607   41631       1
   41601   41622       1   41598   41616       1   41592   41613       1   41583
   41595       1   41784   41793       1   41778   41790       1   41775   41787
       1   41769   41781       1   41760   41772       1   41751   41763       1
   41736   41754       1   41727   41745       1   41718   41742       1   41715
   41739       1   41709   41730       1   41706   41724       1   41700   41721
       1   41691   41703       1   41892   41901       1   41886   41898       1
   41883   41895       1   41877   41889       1   41868   41880       1   41859
   41871       1   41844   41862       1   41835   41853       1   41826   41850
       1   41823   41847       1   41817   41838       1   41814   41832       1
   41808   41829       1   41799   41811       1   42000   42009       1   41994
   42006       1   41991   42003       1   41985   41997       1   41976   41988
       1   41967   41979       1   41952   41970       1   41943   41961       1
   41934   41958       1   41931   41955       1   41925   41946       1   41922
   41940       1   41916   41937       1   41907   41919       1   42108   42117
       1   42102   42114       1   42099   42111       1   42093   42105       1
   42084   42096       1   42075   42087       1   42060   42078       1   42051
   42069       1   42042   42066       1   42039   42063       1   42033   42054
       1   42030   42048       1   42024   42045       1   42015   42027       1
   42216   42225       1   42210   42222       1   42207   42219       1   42201
   42213       1   42192   42204       1   42183   42195       1   42168   42186
       1   42159   42177       1   42150   42174       1   42147   42171       1
   42141   42162       1   42138   42156       1   42132   42153       1   42123
   42135       1   42324   42333       1   42318   42330       1   42315   42327
       1   42309   42321       1   42300   42312       1   42291   42303       1
   42276   42294       1   42267   42285       1   42258   42282       1   42255
   42279       1   42249   42270       1   42246   42264       1   42240   42261
       1   42231   42243       1   42432   42441       1   42426   42438       1
   42423   42435       1   42417   42429       1   42408   42420       1   42399
   42411       1   42384   42402       1   42375   42393       1   42366   42390
       1   42363   42387       1   42357   42378       1   42354   42372       1
   42348   42369       1   42339   42351       1   42540   42549       1   42534
   42546       1   42531   42543       1   42525   42537       1   42516   42528
       1   42507   42519       1   42492   42510       1   42483   42501       1
   42474   42498       1   42471   42495       1   42465   42486       1   42462
   42480       1   42456   42477       1   42447   42459       1   42648   42657
       1   42642   42654       1   42639   42651       1   42633   42645       1
   42624   42636       1   42615   42627       1   42600   42618       1   42591
   42609       1   42582   42606       1   42579   42603       1   42573   42594
       1   42570   42588       1   42564   42585       1   42555   42567       1
   42756   42765       1   42750   42762       1   42747   42759       1   42741
   42753       1   42732   42744       1   42723   42735       1   42708   42726
       1   42699   42717       1   42690   42714       1   42687   42711       1
   42681   42702       1   42678   42696       1   42672   42693       1   42663
   42675       1   42864   42873       1   42858   42870       1   42855   42867
       1   42849   42861       1   42840   42852       1   42831   42843       1
   42816   42834       1   42807   42825       1   42798   42822       1   42795
   42819       1   42789   42810       1   42786   42804       1   42780   42801
       1   42771   42783       1   42972   42981       1   42966   42978       1
   42963   42975       1   42957   42969       1   42948   42960       1   42939
   42951       1   42924   42942       1   42915   42933       1   42906   42930
       1   42903   42927       1   42897   42918       1   42894   42912       1
   42888   42909       1   42879   42891       1   43080   43089       1   43074
   43086       1   43071   43083       1   43065   43077       1   43056   43068
       1   43047   43059       1   43032   43050       1   43023   43041       1
   43014   43038       1   43011   43035       1   43005   43026       1   43002
   43020       1   42996   43017       1   42987   42999       1   43188   43197
       1   43182   43194       1   43179   43191       1   43173   43185       1
   43164   43176       1   43155   43167       1   43140   43158       1   43131
   43149       1   43122   43146       1   43119   43143       1   43113   43134
       1   43110   43128       1   43104   43125       1   43095   43107       1
   43296   43305       1   43290   43302       1   43287   43299       1   43281
   43293       1   43272   43284       1   43263   43275       1   43248   43266
       1   43239   43257       1   43230   43254       1   43227   43251       1
   43221   43242       1   43218   43236       1   43212   43233       1   43203
   43215       1   43404   43413       1   43398   43410       1   43395   43407
       1   43389   43401       1   43380   43392       1   43371   43383       1
   43356   43374       1   43347   43365       1   43338   43362       1   43335
   43359       1   43329   43350       1   43326   43344       1   43320   43341
       1   43311   43323       1   43512   43521       1   43506   43518       1
   43503   43515       1   43497   43509       1   43488   43500       1   43479
   43491       1   43464   43482       1   43455   43473       1   43446   43470
       1   43443   43467       1   43437   43458       1   43434   43452       1
   43428   43449       1   43419   43431       1   43620   43629       1   43614
   43626       1   43611   43623       1   43605   43617       1   43596   43608
       1   43587   43599       1   43572   43590       1   43563   43581       1
   43554   43578       1   43551   43575       1   43545   43566       1   43542
   43560       1   43536   43557       1   43527   43539       1   43728   43737
       1   43722   43734       1   43719   43731       1   43713   43725       1
   43704   43716       1   43695   43707       1   43680   43698       1   43671
   43689       1   43662   43686       1   43659   43683       1   43653   43674
       1   43650   43668       1   43644   43665       1   43635   43647       1
   43836   43845       1   43830   43842       1   43827   43839       1   43821
   43833       1   43812   43824       1   43803   43815       1   43788   43806
       1   43779   43797       1   43770   43794       1   43767   43791       1
   43761   43782       1   43758   43776       1   43752   43773       1   43743
   43755       1   43944   43953       1   43938   43950       1   43935   43947
       1   43929   43941       1   43920   43932       1   43911   43923       1
   43896   43914       1   43887   43905       1   43878   43902       1   43875
   43899       1   43869   43890       1   43866   43884       1   43860   43881
       1   43851   43863       1   44052   44061       1   44046   44058       1
   44043   44055       1   44037   44049       1   44028   44040       1   44019
   44031       1   44004   44022       1   43995   44013       1   43986   44010
       1   43983   44007       1   43977   43998       1   43974   43992       1
   43968   43989       1   43959   43971       1   44160   44169       1   44154
   44166       1   44151   44163       1   44145   44157       1   44136   44148
       1   44127   44139       1   44112   44130       1   44103   44121       1
   44094   44118       1   44091   44115       1   44085   44106       1   44082
   44100       1   44076   44097       1   44067   44079       1   44268   44277
       1   44262   44274       1   44259   44271       1   44253   44265       1
   44244   44256       1   44235   44247       1   44220   44238       1   44211
   44229       1   44202   44226       1   44199   44223       1   44193   44214
       1   44190   44208       1   44184   44205       1   44175   44187       1
   44376   44385       1   44370   44382       1   44367   44379       1   44361
   44373       1   44352   44364       1   44343   44355       1   44328   44346
       1   44319   44337       1   44310   44334       1   44307   44331       1
   44301   44322       1   44298   44316       1   44292   44313       1   44283
   44295       1   44484   44493       1   44478   44490       1   44475   44487
       1   44469   44481       1   44460   44472       1   44451   44463       1
   44436   44454       1   44427   44445       1   44418   44442       1   44415
   44439       1   44409   44430       1   44406   44424       1   44400   44421
       1   44391   44403       1   44592   44601       1   44586   44598       1
   44583   44595       1   44577   44589       1   44568   44580       1   44559
   44571       1   44544   44562       1   44535   44553       1   44526   44550
       1   44523   44547       1   44517   44538       1   44514   44532       1
   44508   44529       1   44499   44511       1   44700   44709       1   44694
   44706       1   44691   44703       1   44685   44697       1   44676   44688
       1   44667   44679       1   44652   44670       1   44643   44661       1
   44634   44658       1   44631   44655       1   44625   44646       1   44622
   44640       1   44616   44637       1   44607   44619       1   44808   44817
       1   44802   44814       1   44799   44811       1   44793   44805       1
   44784   44796       1   44775   44787       1   44760   44778       1   44751
   44769       1   44742   44766       1   44739   44763       1   44733   44754
       1   44730   44748       1   44724   44745       1   44715   44727       1
   44916   44925       1   44910   44922       1   44907   44919       1   44901
   44913       1   44892   44904       1   44883   44895       1   44868   44886
       1   44859   44877       1   44850   44874       1   44847   44871       1
   44841   44862       1   44838   44856       1   44832   44853       1   44823
   44835       1   45024   45033       1   45018   45030       1   45015   45027
       1   45009   45021       1   45000   45012       1   44991   45003       1
   44976   44994       1   44967   44985       1   44958   44982       1   44955
   44979       1   44949   44970       1   44946   44964       1   44940   44961
       1   44931   44943       1   45132   45141       1   45126   45138       1
   45123   45135       1   45117   45129       1   45108   45120       1   45099
   45111       1   45084   45102       1   45075   45093       1   45066   45090
       1   45063   45087       1   45057   45078       1   45054   45072       1
   45048   45069       1   45039   45051       1   45240   45249       1   45234
   45246       1   45231   45243       1   45225   45237       1   45216   45228
       1   45207   45219       1   45192   45210       1   45183   45201       1
   45174   45198       1   45171   45195       1   45165   45186       1   45162
   45180       1   45156   45177       1   45147   45159       1   45348   45357
       1   45342   45354       1   45339   45351       1   45333   45345       1
   45324   45336       1   45315   45327       1   45300   45318       1   45291
   45309       1   45282   45306       1   45279   45303       1   45273   45294
       1   45270   45288       1   45264   45285       1   45255   45267       1
   45456   45465       1   45450   45462       1   45447   45459       1   45441
   45453       1   45432   45444       1   45423   45435       1   45408   45426
       1   45399   45417       1   45390   45414       1   45387   45411       1
   45381   45402       1   45378   45396       1   45372   45393       1   45363
   45375       1   45564   45573       1   45558   45570       1   45555   45567
       1   45549   45561       1   45540   45552       1   45531   45543       1
   45516   45534       1   45507   45525       1   45498   45522       1   45495
   45519       1   45489   45510       1   45486   45504       1   45480   45501
       1   45471   45483       1   45672   45681       1   45666   45678       1
   45663   45675       1   45657   45669       1   45648   45660       1   45639
   45651       1   45624   45642       1   45615   45633       1   45606   45630
       1   45603   45627       1   45597   45618       1   45594   45612       1
   45588   45609       1   45579   45591       1   45780   45789       1   45774
   45786       1   45771   45783       1   45765   45777       1   45756   45768
       1   45747   45759       1   45732   45750       1   45723   45741       1
   45714   45738       1   45711   45735       1   45705   45726       1   45702
   45720       1   45696   45717       1   45687   45699       1   45888   45897
       1   45882   45894       1   45879   45891       1   45873   45885       1
   45864   45876       1   45855   45867       1   45840   45858       1   45831
   45849       1   45822   45846       1   45819   45843       1   45813   45834
       1   45810   45828       1   45804   45825       1   45795   45807       1
   45996   46005       1   45990   46002       1   45987   45999       1   45981
   45993       1   45972   45984       1   45963   45975       1   45948   45966
       1   45939   45957       1   45930   45954       1   45927   45951       1
   45921   45942       1   45918   45936       1   45912   45933       1   45903
   45915       1   46104   46113       1   46098   46110       1   46095   46107
       1   46089   46101       1   46080   46092       1   46071   46083       1
   46056   46074       1   46047   46065       1   46038   46062       1   46035
   46059       1   46029   46050       1   46026   46044       1   46020   46041
       1   46011   46023       1   46212   46221       1   46206   46218       1
   46203   46215       1   46197   46209       1   46188   46200       1   46179
   46191       1   46164   46182       1   46155   46173       1   46146   46170
       1   46143   46167       1   46137   46158       1   46134   46152       1
   46128   46149       1   46119   46131       1   46320   46329       1   46314
   46326       1   46311   46323       1   46305   46317       1   46296   46308
       1   46287   46299       1   46272   46290       1   46263   46281       1
   46254   46278       1   46251   46275       1   46245   46266       1   46242
   46260       1   46236   46257       1   46227   46239       1   46428   46437
       1   46422   46434       1   46419   46431       1   46413   46425       1
   46404   46416       1   46395   46407       1   46380   46398       1   46371
   46389       1   46362   46386       1   46359   46383       1   46353   46374
       1   46350   46368       1   46344   46365       1   46335   46347       1
   46536   46545       1   46530   46542       1   46527   46539       1   46521
   46533       1   46512   46524       1   46503   46515       1   46488   46506
       1   46479   46497       1   46470   46494       1   46467   46491       1
   46461   46482       1   46458   46476       1   46452   46473       1   46443
   46455       1   46644   46653       1   46638   46650       1   46635   46647
       1   46629   46641       1   46620   46632       1   46611   46623       1
   46596   46614       1   46587   46605       1   46578   46602       1   46575
   46599       1   46569   46590       1   46566   46584       1   46560   46581
       1   46551   46563       1   46752   46761       1   46746   46758       1
   46743   46755       1   46737   46749       1   46728   46740       1   46719
   46731       1   46704   46722       1   46695   46713       1   46686   46710
       1   46683   46707       1   46677   46698       1   46674   46692       1
   46668   46689       1   46659   46671       1   46860   46869       1   46854
   46866       1   46851   46863       1   46845   46857       1   46836   46848
       1   46827   46839       1   46812   46830       1   46803   46821       1
   46794   46818       1   46791   46815       1   46785   46806       1   46782
   46800       1   46776   46797       1   46767   46779       1   46968   46977
       1   46962   46974       1   46959   46971       1   46953   46965       1
   46944   46956       1   46935   46947       1   46920   46938       1   46911
   46929       1   46902   46926       1   46899   46923       1   46893   46914
       1   46890   46908       1   46884   46905       1   46875   46887       1
   47076   47085       1   47070   47082       1   47067   47079       1   47061
   47073       1   47052   47064       1   47043   47055       1   47028   47046
       1   47019   47037       1   47010   47034       1   47007   47031       1
   47001   47022       1   46998   47016       1   46992   47013       1   46983
   46995       1   47184   47193       1   47178   47190       1   47175   47187
       1   47169   47181       1   47160   47172       1   47151   47163       1
   47136   47154       1   47127   47145       1   47118   47142       1   47115
   47139       1   47109   47130       1   47106   47124       1   47100   47121
       1   47091   47103       1   47292   47301       1   47286   47298       1
   47283   47295       1   47277   47289       1   47268   47280       1   47259
   47271       1   47244   47262       1   47235   47253       1   47226   47250
       1   47223   47247       1   47217   47238       1   47214   47232       1
   47208   47229       1   47199   47211       1   47400   47409       1   47394
   47406       1   47391   47403       1   47385   47397       1   47376   47388
       1   47367   47379       1   47352   47370       1   47343   47361       1
   47334   47358       1   47331   47355       1   47325   47346       1   47322
   47340       1   47316   47337       1   47307   47319       1   47508   47517
       1   47502   47514       1   47499   47511       1   47493   47505       1
   47484   47496       1   47475   47487       1   47460   47478       1   47451
   47469       1   47442   47466       1   47439   47463       1   47433   47454
       1   47430   47448       1   47424   47445       1   47415   47427       1
   47616   47625       1   47610   47622       1   47607   47619       1   47601
   47613       1   47592   47604       1   47583   47595       1   47568   47586
       1   47559   47577       1   47550   47574       1   47547   47571       1
   47541   47562       1   47538   47556       1   47532   47553       1   47523
   47535       1   47724   47733       1   47718   47730       1   47715   47727
       1   47709   47721       1   47700   47712       1   47691   47703       1
   47676   47694       1   47667   47685       1   47658   47682       1   47655
   47679       1   47649   47670       1   47646   47664       1   47640   47661
       1   47631   47643       1   47832   47841       1   47826   47838       1
   47823   47835       1   47817   47829       1   47808   47820       1   47799
   47811       1   47784   47802       1   47775   47793       1   47766   47790
       1   47763   47787       1   47757   47778       1   47754   47772       1
   47748   47769       1   47739   47751       1   47940   47949       1   47934
   47946       1   47931   47943       1   47925   47937       1   47916   47928
       1   47907   47919       1   47892   47910       1   47883   47901       1
   47874   47898       1   47871   47895       1   47865   47886       1   47862
   47880       1   47856   47877       1   47847   47859       1   48048   48057
       1   48042   48054       1   48039   48051       1   48033   48045       1
   48024   48036       1   48015   48027       1   48000   48018       1   47991
   48009       1   47982   48006       1   47979   48003       1   47973   47994
       1   47970   47988       1   47964   47985       1   47955   47967       1
   48156   48165       1   48150   48162       1   48147   48159       1   48141
   48153       1   48132   48144       1   48123   48135       1   48108   48126
       1   48099   48117       1   48090   48114       1   48087   48111       1
   48081   48102       1   48078   48096       1   48072   48093       1   48063
   48075       1   48264   48273       1   48258   48270       1   48255   48267
       1   48249   48261       1   48240   48252       1   48231   48243       1
   48216   48234       1   48207   48225       1   48198   48222       1   48195
   48219       1   48189   48210       1   48186   48204       1   48180   48201
       1   48171   48183       1   48372   48381       1   48366   48378       1
   48363   48375       1   48357   48369       1   48348   48360       1   48339
   48351       1   48324   48342       1   48315   48333       1   48306   48330
       1   48303   48327       1   48297   48318       1   48294   48312       1
   48288   48309       1   48279   48291       1   48480   48489       1   48474
   48486       1   48471   48483       1   48465   48477       1   48456   48468
       1   48447   48459       1   48432   48450       1   48423   48441       1
   48414   48438       1   48411   48435       1   48405   48426       1   48402
   48420       1   48396   48417       1   48387   48399       1   48588   48597
       1   48582   48594       1   48579   48591       1   48573   48585       1
   48564   48576       1   48555   48567       1   48540   48558       1   48531
   48549       1   48522   48546       1   48519   48543       1   48513   48534
       1   48510   48528       1   48504   48525       1   48495   48507       1
   48696   48705       1   48690   48702       1   48687   48699       1   48681
   48693       1   48672   48684       1   48663   48675       1   48648   48666
       1   48639   48657       1   48630   48654       1   48627   48651       1
   48621   48642       1   48618   48636       1   48612   48633       1   48603
   48615       1   48804   48813       1   48798   48810       1   48795   48807
       1   48789   48801       1   48780   48792       1   48771   48783       1
   48756   48774       1   48747   48765       1   48738   48762       1   48735
   48759       1   48729   48750       1   48726   48744       1   48720   48741
       1   48711   48723       1   48912   48921       1   48906   48918       1
   48903   48915       1   48897   48909       1   48888   48900       1   48879
   48891       1   48864   48882       1   48855   48873       1   48846   48870
       1   48843   48867       1   48837   48858       1   48834   48852       1
   48828   48849       1   48819   48831       1   49020   49029       1   49014
   49026       1   49011   49023       1   49005   49017       1   48996   49008
       1   48987   48999       1   48972   48990       1   48963   48981       1
   48954   48978       1   48951   48975       1   48945   48966       1   48942
   48960       1   48936   48957       1   48927   48939       1   49128   49137
       1   49122   49134       1   49119   49131       1   49113   49125       1
   49104   49116       1   49095   49107       1   49080   49098       1   49071
   49089       1   49062   49086       1   49059   49083       1   49053   49074
       1   49050   49068       1   49044   49065       1   49035   49047       1
   49236   49245       1   49230   49242       1   49227   49239       1   49221
   49233       1   49212   49224       1   49203   49215       1   49188   49206
       1   49179   49197       1   49170   49194       1   49167   49191       1
   49161   49182       1   49158   49176       1   49152   49173       1   49143
   49155       1   49344   49353       1   49338   49350       1   49335   49347
       1   49329   49341       1   49320   49332       1   49311   49323       1
   49296   49314       1   49287   49305       1   49278   49302       1   49275
   49299       1   49269   49290       1   49266   49284       1   49260   49281
       1   49251   49263       1   49452   49461       1   49446   49458       1
   49443   49455       1   49437   49449       1   49428   49440       1   49419
   49431       1   49404   49422       1   49395   49413       1   49386   49410
       1   49383   49407       1   49377   49398       1   49374   49392       1
   49368   49389       1   49359   49371       1   49560   49569       1   49554
   49566       1   49551   49563       1   49545   49557       1   49536   49548
       1   49527   49539       1   49512   49530       1   49503   49521       1
   49494   49518       1   49491   49515       1   49485   49506       1   49482
   49500       1   49476   49497       1   49467   49479       1   49668   49677
       1   49662   49674       1   49659   49671       1   49653   49665       1
   49644   49656       1   49635   49647       1   49620   49638       1   49611
   49629       1   49602   49626       1   49599   49623       1   49593   49614
       1   49590   49608       1   49584   49605       1   49575   49587       1
   49776   49785       1   49770   49782       1   49767   49779       1   49761
   49773       1   49752   49764       1   49743   49755       1   49728   49746
       1   49719   49737       1   49710   49734       1   49707   49731       1
   49701   49722       1   49698   49716       1   49692   49713       1   49683
   49695       1   49884   49893       1   49878   49890       1   49875   49887
       1   49869   49881       1   49860   49872       1   49851   49863       1
   49836   49854       1   49827   49845       1   49818   49842       1   49815
   49839       1   49809   49830       1   49806   49824       1   49800   49821
       1   49791   49803       1   49992   50001       1   49986   49998       1
   49983   49995       1   49977   49989       1   49968   49980       1   49959
   49971       1   49944   49962       1   49935   49953       1   49926   49950
       1   49923   49947       1   49917   49938       1   49914   49932       1
   49908   49929       1   49899   49911       1   50100   50109       1   50094
   50106       1   50091   50103       1   50085   50097       1   50076   50088
       1   50067   50079       1   50052   50070       1   50043   50061       1
   50034   50058       1   50031   50055       1   50025   50046       1   50022
   50040       1   50016   50037       1   50007   50019       1   50208   50217
       1   50202   50214       1   50199   50211       1   50193   50205       1
   50184   50196       1   50175   50187       1   50160   50178       1   50151
   50169       1   50142   50166       1   50139   50163       1   50133   50154
       1   50130   50148       1   50124   50145       1   50115   50127       1
   50316   50325       1   50310   50322       1   50307   50319       1   50301
   50313       1   50292   50304       1   50283   50295       1   50268   50286
       1   50259   50277       1   50250   50274       1   50247   50271       1
   50241   50262       1   50238   50256       1   50232   50253       1   50223
   50235       1   50424   50433       1   50418   50430       1   50415   50427
       1   50409   50421       1   50400   50412       1   50391   50403       1
   50376   50394       1   50367   50385       1   50358   50382       1   50355
   50379       1   50349   50370       1   50346   50364       1   50340   50361
       1   50331   50343       1   50532   50541       1   50526   50538       1
   50523   50535       1   50517   50529       1   50508   50520       1   50499
   50511       1   50484   50502       1   50475   50493       1   50466   50490
       1   50463   50487       1   50457   50478       1   50454   50472       1
   50448   50469       1   50439   50451       1   50640   50649       1   50634
   50646       1   50631   50643       1   50625   50637       1   50616   50628
       1   50607   50619       1   50592   50610       1   50583   50601       1
   50574   50598       1   50571   50595       1   50565   50586       1   50562
   50580       1   50556   50577       1   50547   50559       1   50748   50757
       1   50742   50754       1   50739   50751       1   50733   50745       1
   50724   50736       1   50715   50727       1   50700   50718       1   50691
   50709       1   50682   50706       1   50679   50703       1   50673   50694
       1   50670   50688       1   50664   50685       1   50655   50667       1
   50856   50865       1   50850   50862       1   50847   50859       1   50841
   50853       1   50832   50844       1   50823   50835       1   50808   50826
       1   50799   50817       1   50790   50814       1   50787   50811       1
   50781   50802       1   50778   50796       1   50772   50793       1   50763
   50775       1   50964   50973       1   50958   50970       1   50955   50967
       1   50949   50961       1   50940   50952       1   50931   50943       1
   50916   50934       1   50907   50925       1   50898   50922       1   50895
   50919       1   50889   50910       1   50886   50904       1   50880   50901
       1   50871   50883       1   51072   51081       1   51066   51078       1
   51063   51075       1   51057   51069       1   51048   51060       1   51039
   51051       1   51024   51042       1   51015   51033       1   51006   51030
       1   51003   51027       1   50997   51018       1   50994   51012       1
   50988   51009       1   50979   50991       1   51180   51189       1   51174
   51186       1   51171   51183       1   51165   51177       1   51156   51168
       1   51147   51159       1   51132   51150       1   51123   51141       1
   51114   51138       1   51111   51135       1   51105   51126       1   51102
   51120       1   51096   51117       1   51087   51099       1   51288   51297
       1   51282   51294       1   51279   51291       1   51273   51285       1
   51264   51276       1   51255   51267       1   51240   51258       1   51231
   51249       1   51222   51246       1   51219   51243       1   51213   51234
       1   51210   51228       1   51204   51225       1   51195   51207       1
   51396   51405       1   51390   51402       1   51387   51399       1   51381
   51393       1   51372   51384       1   51363   51375       1   51348   51366
       1   51339   51357       1   51330   51354       1   51327   51351       1
   51321   51342       1   51318   51336       1   51312   51333       1   51303
   51315       1   51504   51513       1   51498   51510       1   51495   51507
       1   51489   51501       1   51480   51492       1   51471   51483       1
   51456   51474       1   51447   51465       1   51438   51462       1   51435
   51459       1   51429   51450       1   51426   51444       1   51420   51441
       1   51411   51423       1   51612   51621       1   51606   51618       1
   51603   51615       1   51597   51609       1   51588   51600       1   51579
   51591       1   51564   51582       1   51555   51573       1   51546   51570
       1   51543   51567       1   51537   51558       1   51534   51552       1
   51528   51549       1   51519   51531       1   51720   51729       1   51714
   51726       1   51711   51723       1   51705   51717       1   51696   51708
       1   51687   51699       1   51672   51690       1   51663   51681       1
   51654   51678       1   51651   51675       1   51645   51666       1   51642
   51660       1   51636   51657       1   51627   51639       1   51828   51837
       1   51822   51834       1   51819   51831       1   51813   51825       1
   51804   51816       1   51795   51807       1   51780   51798       1   51771
   51789       1   51762   51786       1   51759   51783       1   51753   51774
       1   51750   51768       1   51744   51765       1   51735   51747       1
   51936   51945       1   51930   51942       1   51927   51939       1   51921
   51933       1   51912   51924       1   51903   51915       1   51888   51906
       1   51879   51897       1   51870   51894       1   51867   51891       1
   51861   51882       1   51858   51876       1   51852   51873       1   51843
   51855       1   52044   52053       1   52038   52050       1   52035   52047
       1   52029   52041       1   52020   52032       1   52011   52023       1
   51996   52014       1   51987   52005       1   51978   52002       1   51975
   51999       1   51969   51990       1   51966   51984       1   51960   51981
       1   51951   51963       1   52152   52161       1   52146   52158       1
   52143   52155       1   52137   52149       1   52128   52140       1   52119
   52131       1   52104   52122       1   52095   52113       1   52086   52110
       1   52083   52107       1   52077   52098       1   52074   52092       1
   52068   52089       1   52059   52071       1   52260   52269       1   52254
   52266       1   52251   52263       1   52245   52257       1   52236   52248
       1   52227   52239       1   52212   52230       1   52203   52221       1
   52194   52218       1   52191   52215       1   52185   52206       1   52182
   52200       1   52176   52197       1   52167   52179       1   52368   52377
       1   52362   52374       1   52359   52371       1   52353   52365       1
   52344   52356       1   52335   52347       1   52320   52338       1   52311
   52329       1   52302   52326       1   52299   52323       1   52293   52314
       1   52290   52308       1   52284   52305       1   52275   52287       1
   52476   52485       1   52470   52482       1   52467   52479       1   52461
   52473       1   52452   52464       1   52443   52455       1   52428   52446
       1   52419   52437       1   52410   52434       1   52407   52431       1
   52401   52422       1   52398   52416       1   52392   52413       1   52383
   52395       1   52584   52593       1   52578   52590       1   52575   52587
       1   52569   52581       1   52560   52572       1   52551   52563       1
   52536   52554       1   52527   52545       1   52518   52542       1   52515
   52539       1   52509   52530       1   52506   52524       1   52500   52521
       1   52491   52503       1   52692   52701       1   52686   52698       1
   52683   52695       1   52677   52689       1   52668   52680       1   52659
   52671       1   52644   52662       1   52635   52653       1   52626   52650
       1   52623   52647       1   52617   52638       1   52614   52632       1
   52608   52629       1   52599   52611       1   52800   52809       1   52794
   52806       1   52791   52803       1   52785   52797       1   52776   52788
       1   52767   52779       1   52752   52770       1   52743   52761       1
   52734   52758       1   52731   52755       1   52725   52746       1   52722
   52740       1   52716   52737       1   52707   52719       1   52908   52917
       1   52902   52914       1   52899   52911       1   52893   52905       1
   52884   52896       1   52875   52887       1   52860   52878       1   52851
   52869       1   52842   52866       1   52839   52863       1   52833   52854
       1   52830   52848       1   52824   52845       1   52815   52827       1
%FLAG BONDS_WITHOUT_HYDROGEN
%FORMAT(10I8)
      90      96       2      87      96       2      81      90       2      78
      87       2      72      78       2      69      78       2      69      81
       2      63      72       2      60      69       2      48      60       2
      45      60       2      45      63       2      27      48       2      24
      39       2      24      45       2      21      39       2      18      30
       2      12      30       2       9      24       2       9      27       2
       6      18       2       6      21       2       3      12       2       0
       3       2       0       6       2       0       9       2     198     204
       2     195     204       2     189     198       2     186     195       2
     180     186       2     177     186       2     177     189       2     171
     180       2     168     177       2     156     168       2     153     168
       2     153     171       2     135     156       2     132     147       2
     132     153       2     129     147       2     126     138       2     120
     138       2     117     132       2     117     135       2     114     126
       2     114     129       2     111     120       2     108     111       2
     108     114       2     108     117       2     306     312       2     303
     312       2     297     306       2     294     303       2     288     294
       2     285     294       2     285     297       2     279     288       2
     276     285       2     264     276       2     261     276       2     261
     279       2     243     264       2     240     255       2     240     261
       2     237     255       2     234     246       2     228     246       2
     225     240       2     225     243       2     222     234       2     222
     237       2     219     228       2     216     219       2     216     222
       2     216     225       2     414     420       2     411     420       2
     405     414       2     402     411       2     396     402       2     393
     402       2     393     405       2     387     396       2     384     393
       2     372     384       2     369     384       2     369     387       2
     351     372       2     348     363       2     348     369       2     345
     363       2     342     354       2     336     354       2     333     348
       2     333     351       2     330     342       2     330     345       2
     327     336       2     324     327       2     324     330       2     324
     333       2     522     528       2     519     528       2     513     522
       2     510     519       2     504     510       2     501     510       2
     501     513       2     495     504       2     492     501       2     480
     492       2     477     492       2     477     495       2     459     480
       2     456     471       2     456     477       2     453     471       2
     450     462       2     444     462       2     441     456       2     441
     459       2     438     450       2     438     453       2     435     444
       2     432     435       2     432     438       2     432     441       2
     630     636       2     627     636       2     621     630       2     618
     627       2     612     618       2     609     618       2     609     621
       2     603     612       2     600     609       2     588     600       2
     585     600       2     585     603       2     567     588       2     564
     579       2     564     585       2     561     579       2     558     570
       2     552     570       2     549     564       2     549     567       2
     546     558       2     546     561       2     543     552       2     540
     543       2     540     546       2     540     549       2     738     744
       2     735     744       2     729     738       2     726     735       2
     720     726       2     717     726       2     717     729       2     711
     720       2     708     717       2     696     708       2     693     708
       2     693     711       2     675     696       2     672     687       2
     672     693       2     669     687       2     666     678       2     660
     678       2     657     672       2     657     675       2     654     666
       2     654     669       2     651     660       2     648     651       2
     648     654       2     648     657       2     846     852       2     843
     852       2     837     846       2     834     843       2     828     834
       2     825     834       2     825     837       2     819     828       2
     816     825       2     804     816       2     801     816       2     801
     819       2     783     804       2     780     795       2     780     801
       2     777     795       2     774     786       2     768     786       2
     765     780       2     765     783       2     762     774       2     762
     777       2     759     768       2     756     759       2     756     762
       2     756     765       2     954     960       2     951     960       2
     945     954       2     942     951       2     936     942       2     933
     942       2     933     945       2     927     936       2     924     933
       2     912     924       2     909     924       2     909     927       2
     891     912       2     888     903       2     888     909       2     885
     903       2     882     894       2     876     894       2     873     888
       2     873     891       2     870     882       2     870     885       2
     867     876       2     864     867       2     864     870       2     864
     873       2    1062    1068       2    1059    1068       2    1053    1062
       2    1050    1059       2    1044    1050       2    1041    1050       2
    1041    1053       2    1035    1044       2    1032    1041       2    1020
    1032       2    1017    1032       2    1017    1035       2     999    1020
       2     996    1011       2     996    1017       2     993    1011       2
     990    1002       2     984    1002       2     981     996       2     981
     999       2     978     990       2     978     993       2     975     984
       2     972     975       2     972     978       2     972     981       2
    1170    1176       2    1167    1176       2    1161    1170       2    1158
    1167       2    1152    1158       2    1149    1158       2    1149    1161
       2    1143    1152       2    1140    1149       2    1128    1140       2
    1125    1140       2    1125    1143       2    1107    1128       2    1104
    1119       2    1104    1125       2    1101    1119       2    1098    1110
       2    1092    1110       2    1089    1104       2    1089    1107       2
    1086    1098       2    1086    1101       2    1083    1092       2    1080
    1083       2    1080    1086       2    1080    1089       2    1278    1284
       2    1275    1284       2    1269    1278       2    1266    1275       2
    1260    1266       2    1257    1266       2    1257    1269       2    1251
    1260       2    1248    1257       2    1236    1248       2    1233    1248
       2    1233    1251       2    1215    1236       2    1212    1227       2
    1212    1233       2    1209    1227       2    1206    1218       2    1200
    1218       2    1197    1212       2    1197    1215       2    1194    1206
       2    1194    1209       2    1191    1200       2    1188    1191       2
    1188    1194       2    1188    1197       2    1386    1392       2    1383
    1392       2    1377    1386       2    1374    1383       2    1368    1374
       2    1365    1374       2    1365    1377       2    1359    1368       2
    1356    1365       2    1344    1356       2    1341    1356       2    1341
    1359       2    1323    1344       2    1320    1335       2    1320    1341
       2    1317    1335       2    1314    1326       2    1308    1326       2
    1305    1320       2    1305    1323       2    1302    1314       2    1302
    1317       2    1299    1308       2    1296    1299       2    1296    1302
       2    1296    1305       2    1494    1500       2    1491    1500       2
    1485    1494       2    1482    1491       2    1476    1482       2    1473
    1482       2    1473    1485       2    1467    1476       2    1464    1473
       2    1452    1464       2    1449    1464       2    1449    1467       2
    1431    1452       2    1428    1443       2    1428    1449       2    1425
    1443       2    1422    1434       2    1416    1434       2    1413    1428
       2    1413    1431       2    1410    1422       2    1410    1425       2
    1407    1416       2    1404    1407       2    1404    1410       2    1404
    1413       2    1602    1608       2    1599    1608       2    1593    1602
       2    1590    1599       2    1584    1590       2    1581    1590       2
    1581    1593       2    1575    1584       2    1572    1581       2    1560
    1572       2    1557    1572       2    1557    1575       2    1539    1560
       2    1536    1551       2    1536    1557       2    1533    1551       2
    1530    1542       2    1524    1542       2    1521    1536       2    1521
    1539       2    1518    1530       2    1518    1533       2    1515    1524
       2    1512    1515       2    1512    1518       2    1512    1521       2
    1710    1716       2    1707    1716       2    1701    1710       2    1698
    1707       2    1692    1698       2    1689    1698       2    1689    1701
       2    1683    1692       2    1680    1689       2    1668    1680       2
    1665    1680       2    1665    1683       2    1647    1668       2    1644
    1659       2    1644    1665       2    1641    1659       2    1638    1650
       2    1632    1650       2    1629    1644       2    1629    1647       2
    1626    1638       2    1626    1641       2    1623    1632       2    1620
    1623       2    1620    1626       2    1620    1629       2    1818    1824
       2    1815    1824       2    1809    1818       2    1806    1815       2
    1800    1806       2    1797    1806       2    1797    1809       2    1791
    1800       2    1788    1797       2    1776    1788       2    1773    1788
       2    1773    1791       2    1755    1776       2    1752    1767       2
    1752    1773       2    1749    1767       2    1746    1758       2    1740
    1758       2    1737    1752       2    1737    1755       2    1734    1746
       2    1734    1749       2    1731    1740       2    1728    1731       2
    1728    1734       2    1728    1737       2    1926    1932       2    1923
    1932       2    1917    1926       2    1914    1923       2    1908    1914
       2    1905    1914       2    1905    1917       2    1899    1908       2
    1896    1905       2    1884    1896       2    1881    1896       2    1881
    1899       2    1863    1884       2    1860    1875       2    1860    1881
       2    1857    1875       2    1854    1866       2    1848    1866       2
    1845    1860       2    1845    1863       2    1842    1854       2    1842
    1857       2    1839    1848       2    1836    1839       2    1836    1842
       2    1836    1845       2    2034    2040       2    2031    2040       2
    2025    2034       2    2022    2031       2    2016    2022       2    2013
    2022       2    2013    2025       2    2007    2016       2    2004    2013
       2    1992    2004       2    1989    2004       2    1989    2007       2
    1971    1992       2    1968    1983       2    1968    1989       2    1965
    1983       2    1962    1974       2    1956    1974       2    1953    1968
       2    1953    1971       2    1950    1962       2    1950    1965       2
    1947    1956       2    1944    1947       2    1944    1950       2    1944
    1953       2    2142    2148       2    2139    2148       2    2133    2142
       2    2130    2139       2    2124    2130       2    2121    2130       2
    2121    2133       2    2115    2124       2    2112    2121       2    2100
    2112       2    2097    2112       2    2097    2115       2    2079    2100
       2    2076    2091       2    2076    2097       2    2073    2091       2
    2070    2082       2    2064    2082       2    2061    2076       2    2061
    2079       2    2058    2070       2    2058    2073       2    2055    2064
       2    2052    2055       2    2052    2058       2    2052    2061       2
    2250    2256       2    2247    2256       2    2241    2250       2    2238
    2247       2    2232    2238       2    2229    2238       2    2229    2241
       2    2223    2232       2    2220    2229       2    2208    2220       2
    2205    2220       2    2205    2223       2    2187    2208       2    2184
    2199       2    2184    2205       2    2181    2199       2    2178    2190
       2    2172    2190       2    2169    2184       2    2169    2187       2
    2166    2178       2    2166    2181       2    2163    2172       2    2160
    2163       2    2160    2166       2    2160    2169       2    2358    2364
       2    2355    2364       2    2349    2358       2    2346    2355       2
    2340    2346       2    2337    2346       2    2337    2349       2    2331
    2340       2    2328    2337       2    2316    2328       2    2313    2328
       2    2313    2331       2    2295    2316       2    2292    2307       2
    2292    2313       2    2289    2307       2    2286    2298       2    2280
    2298       2    2277    2292       2    2277    2295       2    2274    2286
       2    2274    2289       2    2271    2280       2    2268    2271       2
    2268    2274       2    2268    2277       2    2466    2472       2    2463
    2472       2    2457    2466       2    2454    2463       2    2448    2454
       2    2445    2454       2    2445    2457       2    2439    2448       2
    2436    2445       2    2424    2436       2    2421    2436       2    2421
    2439       2    2403    2424       2    2400    2415       2    2400    2421
       2    2397    2415       2    2394    2406       2    2388    2406       2
    2385    2400       2    2385    2403       2    2382    2394       2    2382
    2397       2    2379    2388       2    2376    2379       2    2376    2382
       2    2376    2385       2    2574    2580       2    2571    2580       2
    2565    2574       2    2562    2571       2    2556    2562       2    2553
    2562       2    2553    2565       2    2547    2556       2    2544    2553
       2    2532    2544       2    2529    2544       2    2529    2547       2
    2511    2532       2    2508    2523       2    2508    2529       2    2505
    2523       2    2502    2514       2    2496    2514       2    2493    2508
       2    2493    2511       2    2490    2502       2    2490    2505       2
    2487    2496       2    2484    2487       2    2484    2490       2    2484
    2493       2    2682    2688       2    2679    2688       2    2673    2682
       2    2670    2679       2    2664    2670       2    2661    2670       2
    2661    2673       2    2655    2664       2    2652    2661       2    2640
    2652       2    2637    2652       2    2637    2655       2    2619    2640
       2    2616    2631       2    2616    2637       2    2613    2631       2
    2610    2622       2    2604    2622       2    2601    2616       2    2601
    2619       2    2598    2610       2    2598    2613       2    2595    2604
       2    2592    2595       2    2592    2598       2    2592    2601       2
    2790    2796       2    2787    2796       2    2781    2790       2    2778
    2787       2    2772    2778       2    2769    2778       2    2769    2781
       2    2763    2772       2    2760    2769       2    2748    2760       2
    2745    2760       2    2745    2763       2    2727    2748       2    2724
    2739       2    2724    2745       2    2721    2739       2    2718    2730
       2    2712    2730       2    2709    2724       2    2709    2727       2
    2706    2718       2    2706    2721       2    2703    2712       2    2700
    2703       2    2700    2706       2    2700    2709       2    2898    2904
       2    2895    2904       2    2889    2898       2    2886    2895       2
    2880    2886       2    2877    2886       2    2877    2889       2    2871
    2880       2    2868    2877       2    2856    2868       2    2853    2868
       2    2853    2871       2    2835    2856       2    2832    2847       2
    2832    2853       2    2829    2847       2    2826    2838       2    2820
    2838       2    2817    2832       2    2817    2835       2    2814    2826
       2    2814    2829       2    2811    2820       2    2808    2811       2
    2808    2814       2    2808    2817       2    3006    3012       2    3003
    3012       2    2997    3006       2    2994    3003       2    2988    2994
       2    2985    2994       2    2985    2997       2    2979    2988       2
    2976    2985       2    2964    2976       2    2961    2976       2    2961
    2979       2    2943    2964       2    2940    2955       2    2940    2961
       2    2937    2955       2    2934    2946       2    2928    2946       2
    2925    2940       2    2925    2943       2    2922    2934       2    2922
    2937       2    2919    2928       2    2916    2919       2    2916    2922
       2    2916    2925       2    3114    3120       2    3111    3120       2
    3105    3114       2    3102    3111       2    3096    3102       2    3093
    3102       2    3093    3105       2    3087    3096       2    3084    3093
       2    3072    3084       2    3069    3084       2    3069    3087       2
    3051    3072       2    3048    3063       2    3048    3069       2    3045
    3063       2    3042    3054       2    3036    3054       2    3033    3048
       2    3033    3051       2    3030    3042       2    3030    3045       2
    3027    3036       2    3024    3027       2    3024    3030       2    3024
    3033       2    3222    3228       2    3219    3228       2    3213    3222
       2    3210    3219       2    3204    3210       2    3201    3210       2
    3201    3213       2    3195    3204       2    3192    3201       2    3180
    3192       2    3177    3192       2    3177    3195       2    3159    3180
       2    3156    3171       2    3156    3177       2    3153    3171       2
    3150    3162       2    3144    3162       2    3141    3156       2    3141
    3159       2    3138    3150       2    3138    3153       2    3135    3144
       2    3132    3135       2    3132    3138       2    3132    3141       2
    3330    3336       2    3327    3336       2    3321    3330       2    3318
    3327       2    3312    3318       2    3309    3318       2    3309    3321
       2    3303    3312       2    3300    3309       2    3288    3300       2
    3285    3300       2    3285    3303       2    3267    3288       2    3264
    3279       2    3264    3285       2    3261    3279       2    3258    3270
       2    3252    3270       2    3249    3264       2    3249    3267       2
    3246    3258       2    3246    3261       2    3243    3252       2    3240
    3243       2    3240    3246       2    3240    3249       2    3438    3444
       2    3435    3444       2    3429    3438       2    3426    3435       2
    3420    3426       2    3417    3426       2    3417    3429       2    3411
    3420       2    3408    3417       2    3396    3408       2    3393    3408
       2    3393    3411       2    3375    3396       2    3372    3387       2
    3372    3393       2    3369    3387       2    3366    3378       2    3360
    3378       2    3357    3372       2    3357    3375       2    3354    3366
       2    3354    3369       2    3351    3360       2    3348    3351       2
    3348    3354       2    3348    3357       2    3546    3552       2    3543
    3552       2    3537    3546       2    3534    3543       2    3528    3534
       2    3525    3534       2    3525    3537       2    3519    3528       2
    3516    3525       2    3504    3516       2    3501    3516       2    3501
    3519       2    3483    3504       2    3480    3495       2    3480    3501
       2    3477    3495       2    3474    3486       2    3468    3486       2
    3465    3480       2    3465    3483       2    3462    3474       2    3462
    3477       2    3459    3468       2    3456    3459       2    3456    3462
       2    3456    3465       2    3654    3660       2    3651    3660       2
    3645    3654       2    3642    3651       2    3636    3642       2    3633
    3642       2    3633    3645       2    3627    3636       2    3624    3633
       2    3612    3624       2    3609    3624       2    3609    3627       2
    3591    3612       2    3588    3603       2    3588    3609       2    3585
    3603       2    3582    3594       2    3576    3594       2    3573    3588
       2    3573    3591       2    3570    3582       2    3570    3585       2
    3567    3576       2    3564    3567       2    3564    3570       2    3564
    3573       2    3762    3768       2    3759    3768       2    3753    3762
       2    3750    3759       2    3744    3750       2    3741    3750       2
    3741    3753       2    3735    3744       2    3732    3741       2    3720
    3732       2    3717    3732       2    3717    3735       2    3699    3720
       2    3696    3711       2    3696    3717       2    3693    3711       2
    3690    3702       2    3684    3702       2    3681    3696       2    3681
    3699       2    3678    3690       2    3678    3693       2    3675    3684
       2    3672    3675       2    3672    3678       2    3672    3681       2
    3870    3876       2    3867    3876       2    3861    3870       2    3858
    3867       2    3852    3858       2    3849    3858       2    3849    3861
       2    3843    3852       2    3840    3849       2    3828    3840       2
    3825    3840       2    3825    3843       2    3807    3828       2    3804
    3819       2    3804    3825       2    3801    3819       2    3798    3810
       2    3792    3810       2    3789    3804       2    3789    3807       2
    3786    3798       2    3786    3801       2    3783    3792       2    3780
    3783       2    3780    3786       2    3780    3789       2    3978    3984
       2    3975    3984       2    3969    3978       2    3966    3975       2
    3960    3966       2    3957    3966       2    3957    3969       2    3951
    3960       2    3948    3957       2    3936    3948       2    3933    3948
       2    3933    3951       2    3915    3936       2    3912    3927       2
    3912    3933       2    3909    3927       2    3906    3918       2    3900
    3918       2    3897    3912       2    3897    3915       2    3894    3906
       2    3894    3909       2    3891    3900       2    3888    3891       2
    3888    3894       2    3888    3897       2    4086    4092       2    4083
    4092       2    4077    4086       2    4074    4083       2    4068    4074
       2    4065    4074       2    4065    4077       2    4059    4068       2
    4056    4065       2    4044    4056       2    4041    4056       2    4041
    4059       2    4023    4044       2    4020    4035       2    4020    4041
       2    4017    4035       2    4014    4026       2    4008    4026       2
    4005    4020       2    4005    4023       2    4002    4014       2    4002
    4017       2    3999    4008       2    3996    3999       2    3996    4002
       2    3996    4005       2    4194    4200       2    4191    4200       2
    4185    4194       2    4182    4191       2    4176    4182       2    4173
    4182       2    4173    4185       2    4167    4176       2    4164    4173
       2    4152    4164       2    4149    4164       2    4149    4167       2
    4131    4152       2    4128    4143       2    4128    4149       2    4125
    4143       2    4122    4134       2    4116    4134       2    4113    4128
       2    4113    4131       2    4110    4122       2    4110    4125       2
    4107    4116       2    4104    4107       2    4104    4110       2    4104
    4113       2    4302    4308       2    4299    4308       2    4293    4302
       2    4290    4299       2    4284    4290       2    4281    4290       2
    4281    4293       2    4275    4284       2    4272    4281       2    4260
    4272       2    4257    4272       2    4257    4275       2    4239    4260
       2    4236    4251       2    4236    4257       2    4233    4251       2
    4230    4242       2    4224    4242       2    4221    4236       2    4221
    4239       2    4218    4230       2    4218    4233       2    4215    4224
       2    4212    4215       2    4212    4218       2    4212    4221       2
    4410    4416       2    4407    4416       2    4401    4410       2    4398
    4407       2    4392    4398       2    4389    4398       2    4389    4401
       2    4383    4392       2    4380    4389       2    4368    4380       2
    4365    4380       2    4365    4383       2    4347    4368       2    4344
    4359       2    4344    4365       2    4341    4359       2    4338    4350
       2    4332    4350       2    4329    4344       2    4329    4347       2
    4326    4338       2    4326    4341       2    4323    4332       2    4320
    4323       2    4320    4326       2    4320    4329       2    4518    4524
       2    4515    4524       2    4509    4518       2    4506    4515       2
    4500    4506       2    4497    4506       2    4497    4509       2    4491
    4500       2    4488    4497       2    4476    4488       2    4473    4488
       2    4473    4491       2    4455    4476       2    4452    4467       2
    4452    4473       2    4449    4467       2    4446    4458       2    4440
    4458       2    4437    4452       2    4437    4455       2    4434    4446
       2    4434    4449       2    4431    4440       2    4428    4431       2
    4428    4434       2    4428    4437       2    4626    4632       2    4623
    4632       2    4617    4626       2    4614    4623       2    4608    4614
       2    4605    4614       2    4605    4617       2    4599    4608       2
    4596    4605       2    4584    4596       2    4581    4596       2    4581
    4599       2    4563    4584       2    4560    4575       2    4560    4581
       2    4557    4575       2    4554    4566       2    4548    4566       2
    4545    4560       2    4545    4563       2    4542    4554       2    4542
    4557       2    4539    4548       2    4536    4539       2    4536    4542
       2    4536    4545       2    4734    4740       2    4731    4740       2
    4725    4734       2    4722    4731       2    4716    4722       2    4713
    4722       2    4713    4725       2    4707    4716       2    4704    4713
       2    4692    4704       2    4689    4704       2    4689    4707       2
    4671    4692       2    4668    4683       2    4668    4689       2    4665
    4683       2    4662    4674       2    4656    4674       2    4653    4668
       2    4653    4671       2    4650    4662       2    4650    4665       2
    4647    4656       2    4644    4647       2    4644    4650       2    4644
    4653       2    4842    4848       2    4839    4848       2    4833    4842
       2    4830    4839       2    4824    4830       2    4821    4830       2
    4821    4833       2    4815    4824       2    4812    4821       2    4800
    4812       2    4797    4812       2    4797    4815       2    4779    4800
       2    4776    4791       2    4776    4797       2    4773    4791       2
    4770    4782       2    4764    4782       2    4761    4776       2    4761
    4779       2    4758    4770       2    4758    4773       2    4755    4764
       2    4752    4755       2    4752    4758       2    4752    4761       2
    4950    4956       2    4947    4956       2    4941    4950       2    4938
    4947       2    4932    4938       2    4929    4938       2    4929    4941
       2    4923    4932       2    4920    4929       2    4908    4920       2
    4905    4920       2    4905    4923       2    4887    4908       2    4884
    4899       2    4884    4905       2    4881    4899       2    4878    4890
       2    4872    4890       2    4869    4884       2    4869    4887       2
    4866    4878       2    4866    4881       2    4863    4872       2    4860
    4863       2    4860    4866       2    4860    4869       2    5058    5064
       2    5055    5064       2    5049    5058       2    5046    5055       2
    5040    5046       2    5037    5046       2    5037    5049       2    5031
    5040       2    5028    5037       2    5016    5028       2    5013    5028
       2    5013    5031       2    4995    5016       2    4992    5007       2
    4992    5013       2    4989    5007       2    4986    4998       2    4980
    4998       2    4977    4992       2    4977    4995       2    4974    4986
       2    4974    4989       2    4971    4980       2    4968    4971       2
    4968    4974       2    4968    4977       2    5166    5172       2    5163
    5172       2    5157    5166       2    5154    5163       2    5148    5154
       2    5145    5154       2    5145    5157       2    5139    5148       2
    5136    5145       2    5124    5136       2    5121    5136       2    5121
    5139       2    5103    5124       2    5100    5115       2    5100    5121
       2    5097    5115       2    5094    5106       2    5088    5106       2
    5085    5100       2    5085    5103       2    5082    5094       2    5082
    5097       2    5079    5088       2    5076    5079       2    5076    5082
       2    5076    5085       2    5274    5280       2    5271    5280       2
    5265    5274       2    5262    5271       2    5256    5262       2    5253
    5262       2    5253    5265       2    5247    5256       2    5244    5253
       2    5232    5244       2    5229    5244       2    5229    5247       2
    5211    5232       2    5208    5223       2    5208    5229       2    5205
    5223       2    5202    5214       2    5196    5214       2    5193    5208
       2    5193    5211       2    5190    5202       2    5190    5205       2
    5187    5196       2    5184    5187       2    5184    5190       2    5184
    5193       2    5382    5388       2    5379    5388       2    5373    5382
       2    5370    5379       2    5364    5370       2    5361    5370       2
    5361    5373       2    5355    5364       2    5352    5361       2    5340
    5352       2    5337    5352       2    5337    5355       2    5319    5340
       2    5316    5331       2    5316    5337       2    5313    5331       2
    5310    5322       2    5304    5322       2    5301    5316       2    5301
    5319       2    5298    5310       2    5298    5313       2    5295    5304
       2    5292    5295       2    5292    5298       2    5292    5301       2
    5490    5496       2    5487    5496       2    5481    5490       2    5478
    5487       2    5472    5478       2    5469    5478       2    5469    5481
       2    5463    5472       2    5460    5469       2    5448    5460       2
    5445    5460       2    5445    5463       2    5427    5448       2    5424
    5439       2    5424    5445       2    5421    5439       2    5418    5430
       2    5412    5430       2    5409    5424       2    5409    5427       2
    5406    5418       2    5406    5421       2    5403    5412       2    5400
    5403       2    5400    5406       2    5400    5409       2    5598    5604
       2    5595    5604       2    5589    5598       2    5586    5595       2
    5580    5586       2    5577    5586       2    5577    5589       2    5571
    5580       2    5568    5577       2    5556    5568       2    5553    5568
       2    5553    5571       2    5535    5556       2    5532    5547       2
    5532    5553       2    5529    5547       2    5526    5538       2    5520
    5538       2    5517    5532       2    5517    5535       2    5514    5526
       2    5514    5529       2    5511    5520       2    5508    5511       2
    5508    5514       2    5508    5517       2    5706    5712       2    5703
    5712       2    5697    5706       2    5694    5703       2    5688    5694
       2    5685    5694       2    5685    5697       2    5679    5688       2
    5676    5685       2    5664    5676       2    5661    5676       2    5661
    5679       2    5643    5664       2    5640    5655       2    5640    5661
       2    5637    5655       2    5634    5646       2    5628    5646       2
    5625    5640       2    5625    5643       2    5622    5634       2    5622
    5637       2    5619    5628       2    5616    5619       2    5616    5622
       2    5616    5625       2    5814    5820       2    5811    5820       2
    5805    5814       2    5802    5811       2    5796    5802       2    5793
    5802       2    5793    5805       2    5787    5796       2    5784    5793
       2    5772    5784       2    5769    5784       2    5769    5787       2
    5751    5772       2    5748    5763       2    5748    5769       2    5745
    5763       2    5742    5754       2    5736    5754       2    5733    5748
       2    5733    5751       2    5730    5742       2    5730    5745       2
    5727    5736       2    5724    5727       2    5724    5730       2    5724
    5733       2    5922    5928       2    5919    5928       2    5913    5922
       2    5910    5919       2    5904    5910       2    5901    5910       2
    5901    5913       2    5895    5904       2    5892    5901       2    5880
    5892       2    5877    5892       2    5877    5895       2    5859    5880
       2    5856    5871       2    5856    5877       2    5853    5871       2
    5850    5862       2    5844    5862       2    5841    5856       2    5841
    5859       2    5838    5850       2    5838    5853       2    5835    5844
       2    5832    5835       2    5832    5838       2    5832    5841       2
    6030    6036       2    6027    6036       2    6021    6030       2    6018
    6027       2    6012    6018       2    6009    6018       2    6009    6021
       2    6003    6012       2    6000    6009       2    5988    6000       2
    5985    6000       2    5985    6003       2    5967    5988       2    5964
    5979       2    5964    5985       2    5961    5979       2    5958    5970
       2    5952    5970       2    5949    5964       2    5949    5967       2
    5946    5958       2    5946    5961       2    5943    5952       2    5940
    5943       2    5940    5946       2    5940    5949       2    6138    6144
       2    6135    6144       2    6129    6138       2    6126    6135       2
    6120    6126       2    6117    6126       2    6117    6129       2    6111
    6120       2    6108    6117       2    6096    6108       2    6093    6108
       2    6093    6111       2    6075    6096       2    6072    6087       2
    6072    6093       2    6069    6087       2    6066    6078       2    6060
    6078       2    6057    6072       2    6057    6075       2    6054    6066
       2    6054    6069       2    6051    6060       2    6048    6051       2
    6048    6054       2    6048    6057       2    6246    6252       2    6243
    6252       2    6237    6246       2    6234    6243       2    6228    6234
       2    6225    6234       2    6225    6237       2    6219    6228       2
    6216    6225       2    6204    6216       2    6201    6216       2    6201
    6219       2    6183    6204       2    6180    6195       2    6180    6201
       2    6177    6195       2    6174    6186       2    6168    6186       2
    6165    6180       2    6165    6183       2    6162    6174       2    6162
    6177       2    6159    6168       2    6156    6159       2    6156    6162
       2    6156    6165       2    6354    6360       2    6351    6360       2
    6345    6354       2    6342    6351       2    6336    6342       2    6333
    6342       2    6333    6345       2    6327    6336       2    6324    6333
       2    6312    6324       2    6309    6324       2    6309    6327       2
    6291    6312       2    6288    6303       2    6288    6309       2    6285
    6303       2    6282    6294       2    6276    6294       2    6273    6288
       2    6273    6291       2    6270    6282       2    6270    6285       2
    6267    6276       2    6264    6267       2    6264    6270       2    6264
    6273       2    6462    6468       2    6459    6468       2    6453    6462
       2    6450    6459       2    6444    6450       2    6441    6450       2
    6441    6453       2    6435    6444       2    6432    6441       2    6420
    6432       2    6417    6432       2    6417    6435       2    6399    6420
       2    6396    6411       2    6396    6417       2    6393    6411       2
    6390    6402       2    6384    6402       2    6381    6396       2    6381
    6399       2    6378    6390       2    6378    6393       2    6375    6384
       2    6372    6375       2    6372    6378       2    6372    6381       2
    6570    6576       2    6567    6576       2    6561    6570       2    6558
    6567       2    6552    6558       2    6549    6558       2    6549    6561
       2    6543    6552       2    6540    6549       2    6528    6540       2
    6525    6540       2    6525    6543       2    6507    6528       2    6504
    6519       2    6504    6525       2    6501    6519       2    6498    6510
       2    6492    6510       2    6489    6504       2    6489    6507       2
    6486    6498       2    6486    6501       2    6483    6492       2    6480
    6483       2    6480    6486       2    6480    6489       2    6678    6684
       2    6675    6684       2    6669    6678       2    6666    6675       2
    6660    6666       2    6657    6666       2    6657    6669       2    6651
    6660       2    6648    6657       2    6636    6648       2    6633    6648
       2    6633    6651       2    6615    6636       2    6612    6627       2
    6612    6633       2    6609    6627       2    6606    6618       2    6600
    6618       2    6597    6612       2    6597    6615       2    6594    6606
       2    6594    6609       2    6591    6600       2    6588    6591       2
    6588    6594       2    6588    6597       2    6786    6792       2    6783
    6792       2    6777    6786       2    6774    6783       2    6768    6774
       2    6765    6774       2    6765    6777       2    6759    6768       2
    6756    6765       2    6744    6756       2    6741    6756       2    6741
    6759       2    6723    6744       2    6720    6735       2    6720    6741
       2    6717    6735       2    6714    6726       2    6708    6726       2
    6705    6720       2    6705    6723       2    6702    6714       2    6702
    6717       2    6699    6708       2    6696    6699       2    6696    6702
       2    6696    6705       2    6894    6900       2    6891    6900       2
    6885    6894       2    6882    6891       2    6876    6882       2    6873
    6882       2    6873    6885       2    6867    6876       2    6864    6873
       2    6852    6864       2    6849    6864       2    6849    6867       2
    6831    6852       2    6828    6843       2    6828    6849       2    6825
    6843       2    6822    6834       2    6816    6834       2    6813    6828
       2    6813    6831       2    6810    6822       2    6810    6825       2
    6807    6816       2    6804    6807       2    6804    6810       2    6804
    6813       2    7002    7008       2    6999    7008       2    6993    7002
       2    6990    6999       2    6984    6990       2    6981    6990       2
    6981    6993       2    6975    6984       2    6972    6981       2    6960
    6972       2    6957    6972       2    6957    6975       2    6939    6960
       2    6936    6951       2    6936    6957       2    6933    6951       2
    6930    6942       2    6924    6942       2    6921    6936       2    6921
    6939       2    6918    6930       2    6918    6933       2    6915    6924
       2    6912    6915       2    6912    6918       2    6912    6921       2
    7110    7116       2    7107    7116       2    7101    7110       2    7098
    7107       2    7092    7098       2    7089    7098       2    7089    7101
       2    7083    7092       2    7080    7089       2    7068    7080       2
    7065    7080       2    7065    7083       2    7047    7068       2    7044
    7059       2    7044    7065       2    7041    7059       2    7038    7050
       2    7032    7050       2    7029    7044       2    7029    7047       2
    7026    7038       2    7026    7041       2    7023    7032       2    7020
    7023       2    7020    7026       2    7020    7029       2    7218    7224
       2    7215    7224       2    7209    7218       2    7206    7215       2
    7200    7206       2    7197    7206       2    7197    7209       2    7191
    7200       2    7188    7197       2    7176    7188       2    7173    7188
       2    7173    7191       2    7155    7176       2    7152    7167       2
    7152    7173       2    7149    7167       2    7146    7158       2    7140
    7158       2    7137    7152       2    7137    7155       2    7134    7146
       2    7134    7149       2    7131    7140       2    7128    7131       2
    7128    7134       2    7128    7137       2    7326    7332       2    7323
    7332       2    7317    7326       2    7314    7323       2    7308    7314
       2    7305    7314       2    7305    7317       2    7299    7308       2
    7296    7305       2    7284    7296       2    7281    7296       2    7281
    7299       2    7263    7284       2    7260    7275       2    7260    7281
       2    7257    7275       2    7254    7266       2    7248    7266       2
    7245    7260       2    7245    7263       2    7242    7254       2    7242
    7257       2    7239    7248       2    7236    7239       2    7236    7242
       2    7236    7245       2    7434    7440       2    7431    7440       2
    7425    7434       2    7422    7431       2    7416    7422       2    7413
    7422       2    7413    7425       2    7407    7416       2    7404    7413
       2    7392    7404       2    7389    7404       2    7389    7407       2
    7371    7392       2    7368    7383       2    7368    7389       2    7365
    7383       2    7362    7374       2    7356    7374       2    7353    7368
       2    7353    7371       2    7350    7362       2    7350    7365       2
    7347    7356       2    7344    7347       2    7344    7350       2    7344
    7353       2    7542    7548       2    7539    7548       2    7533    7542
       2    7530    7539       2    7524    7530       2    7521    7530       2
    7521    7533       2    7515    7524       2    7512    7521       2    7500
    7512       2    7497    7512       2    7497    7515       2    7479    7500
       2    7476    7491       2    7476    7497       2    7473    7491       2
    7470    7482       2    7464    7482       2    7461    7476       2    7461
    7479       2    7458    7470       2    7458    7473       2    7455    7464
       2    7452    7455       2    7452    7458       2    7452    7461       2
    7650    7656       2    7647    7656       2    7641    7650       2    7638
    7647       2    7632    7638       2    7629    7638       2    7629    7641
       2    7623    7632       2    7620    7629       2    7608    7620       2
    7605    7620       2    7605    7623       2    7587    7608       2    7584
    7599       2    7584    7605       2    7581    7599       2    7578    7590
       2    7572    7590       2    7569    7584       2    7569    7587       2
    7566    7578       2    7566    7581       2    7563    7572       2    7560
    7563       2    7560    7566       2    7560    7569       2    7758    7764
       2    7755    7764       2    7749    7758       2    7746    7755       2
    7740    7746       2    7737    7746       2    7737    7749       2    7731
    7740       2    7728    7737       2    7716    7728       2    7713    7728
       2    7713    7731       2    7695    7716       2    7692    7707       2
    7692    7713       2    7689    7707       2    7686    7698       2    7680
    7698       2    7677    7692       2    7677    7695       2    7674    7686
       2    7674    7689       2    7671    7680       2    7668    7671       2
    7668    7674       2    7668    7677       2    7866    7872       2    7863
    7872       2    7857    7866       2    7854    7863       2    7848    7854
       2    7845    7854       2    7845    7857       2    7839    7848       2
    7836    7845       2    7824    7836       2    7821    7836       2    7821
    7839       2    7803    7824       2    7800    7815       2    7800    7821
       2    7797    7815       2    7794    7806       2    7788    7806       2
    7785    7800       2    7785    7803       2    7782    7794       2    7782
    7797       2    7779    7788       2    7776    7779       2    7776    7782
       2    7776    7785       2    7974    7980       2    7971    7980       2
    7965    7974       2    7962    7971       2    7956    7962       2    7953
    7962       2    7953    7965       2    7947    7956       2    7944    7953
       2    7932    7944       2    7929    7944       2    7929    7947       2
    7911    7932       2    7908    7923       2    7908    7929       2    7905
    7923       2    7902    7914       2    7896    7914       2    7893    7908
       2    7893    7911       2    7890    7902       2    7890    7905       2
    7887    7896       2    7884    7887       2    7884    7890       2    7884
    7893       2    8082    8088       2    8079    8088       2    8073    8082
       2    8070    8079       2    8064    8070       2    8061    8070       2
    8061    8073       2    8055    8064       2    8052    8061       2    8040
    8052       2    8037    8052       2    8037    8055       2    8019    8040
       2    8016    8031       2    8016    8037       2    8013    8031       2
    8010    8022       2    8004    8022       2    8001    8016       2    8001
    8019       2    7998    8010       2    7998    8013       2    7995    8004
       2    7992    7995       2    7992    7998       2    7992    8001       2
    8190    8196       2    8187    8196       2    8181    8190       2    8178
    8187       2    8172    8178       2    8169    8178       2    8169    8181
       2    8163    8172       2    8160    8169       2    8148    8160       2
    8145    8160       2    8145    8163       2    8127    8148       2    8124
    8139       2    8124    8145       2    8121    8139       2    8118    8130
       2    8112    8130       2    8109    8124       2    8109    8127       2
    8106    8118       2    8106    8121       2    8103    8112       2    8100
    8103       2    8100    8106       2    8100    8109       2    8298    8304
       2    8295    8304       2    8289    8298       2    8286    8295       2
    8280    8286       2    8277    8286       2    8277    8289       2    8271
    8280       2    8268    8277       2    8256    8268       2    8253    8268
       2    8253    8271       2    8235    8256       2    8232    8247       2
    8232    8253       2    8229    8247       2    8226    8238       2    8220
    8238       2    8217    8232       2    8217    8235       2    8214    8226
       2    8214    8229       2    8211    8220       2    8208    8211       2
    8208    8214       2    8208    8217       2    8406    8412       2    8403
    8412       2    8397    8406       2    8394    8403       2    8388    8394
       2    8385    8394       2    8385    8397       2    8379    8388       2
    8376    8385       2    8364    8376       2    8361    8376       2    8361
    8379       2    8343    8364       2    8340    8355       2    8340    8361
       2    8337    8355       2    8334    8346       2    8328    8346       2
    8325    8340       2    8325    8343       2    8322    8334       2    8322
    8337       2    8319    8328       2    8316    8319       2    8316    8322
       2    8316    8325       2    8514    8520       2    8511    8520       2
    8505    8514       2    8502    8511       2    8496    8502       2    8493
    8502       2    8493    8505       2    8487    8496       2    8484    8493
       2    8472    8484       2    8469    8484       2    8469    8487       2
    8451    8472       2    8448    8463       2    8448    8469       2    8445
    8463       2    8442    8454       2    8436    8454       2    8433    8448
       2    8433    8451       2    8430    8442       2    8430    8445       2
    8427    8436       2    8424    8427       2    8424    8430       2    8424
    8433       2    8622    8628       2    8619    8628       2    8613    8622
       2    8610    8619       2    8604    8610       2    8601    8610       2
    8601    8613       2    8595    8604       2    8592    8601       2    8580
    8592       2    8577    8592       2    8577    8595       2    8559    8580
       2    8556    8571       2    8556    8577       2    8553    8571       2
    8550    8562       2    8544    8562       2    8541    8556       2    8541
    8559       2    8538    8550       2    8538    8553       2    8535    8544
       2    8532    8535       2    8532    8538       2    8532    8541       2
    8730    8736       2    8727    8736       2    8721    8730       2    8718
    8727       2    8712    8718       2    8709    8718       2    8709    8721
       2    8703    8712       2    8700    8709       2    8688    8700       2
    8685    8700       2    8685    8703       2    8667    8688       2    8664
    8679       2    8664    8685       2    8661    8679       2    8658    8670
       2    8652    8670       2    8649    8664       2    8649    8667       2
    8646    8658       2    8646    8661       2    8643    8652       2    8640
    8643       2    8640    8646       2    8640    8649       2    8838    8844
       2    8835    8844       2    8829    8838       2    8826    8835       2
    8820    8826       2    8817    8826       2    8817    8829       2    8811
    8820       2    8808    8817       2    8796    8808       2    8793    8808
       2    8793    8811       2    8775    8796       2    8772    8787       2
    8772    8793       2    8769    8787       2    8766    8778       2    8760
    8778       2    8757    8772       2    8757    8775       2    8754    8766
       2    8754    8769       2    8751    8760       2    8748    8751       2
    8748    8754       2    8748    8757       2    8946    8952       2    8943
    8952       2    8937    8946       2    8934    8943       2    8928    8934
       2    8925    8934       2    8925    8937       2    8919    8928       2
    8916    8925       2    8904    8916       2    8901    8916       2    8901
    8919       2    8883    8904       2    8880    8895       2    8880    8901
       2    8877    8895       2    8874    8886       2    8868    8886       2
    8865    8880       2    8865    8883       2    8862    8874       2    8862
    8877       2    8859    8868       2    8856    8859       2    8856    8862
       2    8856    8865       2    9054    9060       2    9051    9060       2
    9045    9054       2    9042    9051       2    9036    9042       2    9033
    9042       2    9033    9045       2    9027    9036       2    9024    9033
       2    9012    9024       2    9009    9024       2    9009    9027       2
    8991    9012       2    8988    9003       2    8988    9009       2    8985
    9003       2    8982    8994       2    8976    8994       2    8973    8988
       2    8973    8991       2    8970    8982       2    8970    8985       2
    8967    8976       2    8964    8967       2    8964    8970       2    8964
    8973       2    9162    9168       2    9159    9168       2    9153    9162
       2    9150    9159       2    9144    9150       2    9141    9150       2
    9141    9153       2    9135    9144       2    9132    9141       2    9120
    9132       2    9117    9132       2    9117    9135       2    9099    9120
       2    9096    9111       2    9096    9117       2    9093    9111       2
    9090    9102       2    9084    9102       2    9081    9096       2    9081
    9099       2    9078    9090       2    9078    9093       2    9075    9084
       2    9072    9075       2    9072    9078       2    9072    9081       2
    9270    9276       2    9267    9276       2    9261    9270       2    9258
    9267       2    9252    9258       2    9249    9258       2    9249    9261
       2    9243    9252       2    9240    9249       2    9228    9240       2
    9225    9240       2    9225    9243       2    9207    9228       2    9204
    9219       2    9204    9225       2    9201    9219       2    9198    9210
       2    9192    9210       2    9189    9204       2    9189    9207       2
    9186    9198       2    9186    9201       2    9183    9192       2    9180
    9183       2    9180    9186       2    9180    9189       2    9378    9384
       2    9375    9384       2    9369    9378       2    9366    9375       2
    9360    9366       2    9357    9366       2    9357    9369       2    9351
    9360       2    9348    9357       2    9336    9348       2    9333    9348
       2    9333    9351       2    9315    9336       2    9312    9327       2
    9312    9333       2    9309    9327       2    9306    9318       2    9300
    9318       2    9297    9312       2    9297    9315       2    9294    9306
       2    9294    9309       2    9291    9300       2    9288    9291       2
    9288    9294       2    9288    9297       2    9486    9492       2    9483
    9492       2    9477    9486       2    9474    9483       2    9468    9474
       2    9465    9474       2    9465    9477       2    9459    9468       2
    9456    9465       2    9444    9456       2    9441    9456       2    9441
    9459       2    9423    9444       2    9420    9435       2    9420    9441
       2    9417    9435       2    9414    9426       2    9408    9426       2
    9405    9420       2    9405    9423       2    9402    9414       2    9402
    9417       2    9399    9408       2    9396    9399       2    9396    9402
       2    9396    9405       2    9594    9600       2    9591    9600       2
    9585    9594       2    9582    9591       2    9576    9582       2    9573
    9582       2    9573    9585       2    9567    9576       2    9564    9573
       2    9552    9564       2    9549    9564       2    9549    9567       2
    9531    9552       2    9528    9543       2    9528    9549       2    9525
    9543       2    9522    9534       2    9516    9534       2    9513    9528
       2    9513    9531       2    9510    9522       2    9510    9525       2
    9507    9516       2    9504    9507       2    9504    9510       2    9504
    9513       2    9702    9708       2    9699    9708       2    9693    9702
       2    9690    9699       2    9684    9690       2    9681    9690       2
    9681    9693       2    9675    9684       2    9672    9681       2    9660
    9672       2    9657    9672       2    9657    9675       2    9639    9660
       2    9636    9651       2    9636    9657       2    9633    9651       2
    9630    9642       2    9624    9642       2    9621    9636       2    9621
    9639       2    9618    9630       2    9618    9633       2    9615    9624
       2    9612    9615       2    9612    9618       2    9612    9621       2
    9810    9816       2    9807    9816       2    9801    9810       2    9798
    9807       2    9792    9798       2    9789    9798       2    9789    9801
       2    9783    9792       2    9780    9789       2    9768    9780       2
    9765    9780       2    9765    9783       2    9747    9768       2    9744
    9759       2    9744    9765       2    9741    9759       2    9738    9750
       2    9732    9750       2    9729    9744       2    9729    9747       2
    9726    9738       2    9726    9741       2    9723    9732       2    9720
    9723       2    9720    9726       2    9720    9729       2    9918    9924
       2    9915    9924       2    9909    9918       2    9906    9915       2
    9900    9906       2    9897    9906       2    9897    9909       2    9891
    9900       2    9888    9897       2    9876    9888       2    9873    9888
       2    9873    9891       2    9855    9876       2    9852    9867       2
    9852    9873       2    9849    9867       2    9846    9858       2    9840
    9858       2    9837    9852       2    9837    9855       2    9834    9846
       2    9834    9849       2    9831    9840       2    9828    9831       2
    9828    9834       2    9828    9837       2   10026   10032       2   10023
   10032       2   10017   10026       2   10014   10023       2   10008   10014
       2   10005   10014       2   10005   10017       2    9999   10008       2
    9996   10005       2    9984    9996       2    9981    9996       2    9981
    9999       2    9963    9984       2    9960    9975       2    9960    9981
       2    9957    9975       2    9954    9966       2    9948    9966       2
    9945    9960       2    9945    9963       2    9942    9954       2    9942
    9957       2    9939    9948       2    9936    9939       2    9936    9942
       2    9936    9945       2   10134   10140       2   10131   10140       2
   10125   10134       2   10122   10131       2   10116   10122       2   10113
   10122       2   10113   10125       2   10107   10116       2   10104   10113
       2   10092   10104       2   10089   10104       2   10089   10107       2
   10071   10092       2   10068   10083       2   10068   10089       2   10065
   10083       2   10062   10074       2   10056   10074       2   10053   10068
       2   10053   10071       2   10050   10062       2   10050   10065       2
   10047   10056       2   10044   10047       2   10044   10050       2   10044
   10053       2   10242   10248       2   10239   10248       2   10233   10242
       2   10230   10239       2   10224   10230       2   10221   10230       2
   10221   10233       2   10215   10224       2   10212   10221       2   10200
   10212       2   10197   10212       2   10197   10215       2   10179   10200
       2   10176   10191       2   10176   10197       2   10173   10191       2
   10170   10182       2   10164   10182       2   10161   10176       2   10161
   10179       2   10158   10170       2   10158   10173       2   10155   10164
       2   10152   10155       2   10152   10158       2   10152   10161       2
   10350   10356       2   10347   10356       2   10341   10350       2   10338
   10347       2   10332   10338       2   10329   10338       2   10329   10341
       2   10323   10332       2   10320   10329       2   10308   10320       2
   10305   10320       2   10305   10323       2   10287   10308       2   10284
   10299       2   10284   10305       2   10281   10299       2   10278   10290
       2   10272   10290       2   10269   10284       2   10269   10287       2
   10266   10278       2   10266   10281       2   10263   10272       2   10260
   10263       2   10260   10266       2   10260   10269       2   10458   10464
       2   10455   10464       2   10449   10458       2   10446   10455       2
   10440   10446       2   10437   10446       2   10437   10449       2   10431
   10440       2   10428   10437       2   10416   10428       2   10413   10428
       2   10413   10431       2   10395   10416       2   10392   10407       2
   10392   10413       2   10389   10407       2   10386   10398       2   10380
   10398       2   10377   10392       2   10377   10395       2   10374   10386
       2   10374   10389       2   10371   10380       2   10368   10371       2
   10368   10374       2   10368   10377       2   10566   10572       2   10563
   10572       2   10557   10566       2   10554   10563       2   10548   10554
       2   10545   10554       2   10545   10557       2   10539   10548       2
   10536   10545       2   10524   10536       2   10521   10536       2   10521
   10539       2   10503   10524       2   10500   10515       2   10500   10521
       2   10497   10515       2   10494   10506       2   10488   10506       2
   10485   10500       2   10485   10503       2   10482   10494       2   10482
   10497       2   10479   10488       2   10476   10479       2   10476   10482
       2   10476   10485       2   10674   10680       2   10671   10680       2
   10665   10674       2   10662   10671       2   10656   10662       2   10653
   10662       2   10653   10665       2   10647   10656       2   10644   10653
       2   10632   10644       2   10629   10644       2   10629   10647       2
   10611   10632       2   10608   10623       2   10608   10629       2   10605
   10623       2   10602   10614       2   10596   10614       2   10593   10608
       2   10593   10611       2   10590   10602       2   10590   10605       2
   10587   10596       2   10584   10587       2   10584   10590       2   10584
   10593       2   10782   10788       2   10779   10788       2   10773   10782
       2   10770   10779       2   10764   10770       2   10761   10770       2
   10761   10773       2   10755   10764       2   10752   10761       2   10740
   10752       2   10737   10752       2   10737   10755       2   10719   10740
       2   10716   10731       2   10716   10737       2   10713   10731       2
   10710   10722       2   10704   10722       2   10701   10716       2   10701
   10719       2   10698   10710       2   10698   10713       2   10695   10704
       2   10692   10695       2   10692   10698       2   10692   10701       2
   10890   10896       2   10887   10896       2   10881   10890       2   10878
   10887       2   10872   10878       2   10869   10878       2   10869   10881
       2   10863   10872       2   10860   10869       2   10848   10860       2
   10845   10860       2   10845   10863       2   10827   10848       2   10824
   10839       2   10824   10845       2   10821   10839       2   10818   10830
       2   10812   10830       2   10809   10824       2   10809   10827       2
   10806   10818       2   10806   10821       2   10803   10812       2   10800
   10803       2   10800   10806       2   10800   10809       2   10998   11004
       2   10995   11004       2   10989   10998       2   10986   10995       2
   10980   10986       2   10977   10986       2   10977   10989       2   10971
   10980       2   10968   10977       2   10956   10968       2   10953   10968
       2   10953   10971       2   10935   10956       2   10932   10947       2
   10932   10953       2   10929   10947       2   10926   10938       2   10920
   10938       2   10917   10932       2   10917   10935       2   10914   10926
       2   10914   10929       2   10911   10920       2   10908   10911       2
   10908   10914       2   10908   10917       2   11106   11112       2   11103
   11112       2   11097   11106       2   11094   11103       2   11088   11094
       2   11085   11094       2   11085   11097       2   11079   11088       2
   11076   11085       2   11064   11076       2   11061   11076       2   11061
   11079       2   11043   11064       2   11040   11055       2   11040   11061
       2   11037   11055       2   11034   11046       2   11028   11046       2
   11025   11040       2   11025   11043       2   11022   11034       2   11022
   11037       2   11019   11028       2   11016   11019       2   11016   11022
       2   11016   11025       2   11214   11220       2   11211   11220       2
   11205   11214       2   11202   11211       2   11196   11202       2   11193
   11202       2   11193   11205       2   11187   11196       2   11184   11193
       2   11172   11184       2   11169   11184       2   11169   11187       2
   11151   11172       2   11148   11163       2   11148   11169       2   11145
   11163       2   11142   11154       2   11136   11154       2   11133   11148
       2   11133   11151       2   11130   11142       2   11130   11145       2
   11127   11136       2   11124   11127       2   11124   11130       2   11124
   11133       2   11322   11328       2   11319   11328       2   11313   11322
       2   11310   11319       2   11304   11310       2   11301   11310       2
   11301   11313       2   11295   11304       2   11292   11301       2   11280
   11292       2   11277   11292       2   11277   11295       2   11259   11280
       2   11256   11271       2   11256   11277       2   11253   11271       2
   11250   11262       2   11244   11262       2   11241   11256       2   11241
   11259       2   11238   11250       2   11238   11253       2   11235   11244
       2   11232   11235       2   11232   11238       2   11232   11241       2
   11430   11436       2   11427   11436       2   11421   11430       2   11418
   11427       2   11412   11418       2   11409   11418       2   11409   11421
       2   11403   11412       2   11400   11409       2   11388   11400       2
   11385   11400       2   11385   11403       2   11367   11388       2   11364
   11379       2   11364   11385       2   11361   11379       2   11358   11370
       2   11352   11370       2   11349   11364       2   11349   11367       2
   11346   11358       2   11346   11361       2   11343   11352       2   11340
   11343       2   11340   11346       2   11340   11349       2   11538   11544
       2   11535   11544       2   11529   11538       2   11526   11535       2
   11520   11526       2   11517   11526       2   11517   11529       2   11511
   11520       2   11508   11517       2   11496   11508       2   11493   11508
       2   11493   11511       2   11475   11496       2   11472   11487       2
   11472   11493       2   11469   11487       2   11466   11478       2   11460
   11478       2   11457   11472       2   11457   11475       2   11454   11466
       2   11454   11469       2   11451   11460       2   11448   11451       2
   11448   11454       2   11448   11457       2   11646   11652       2   11643
   11652       2   11637   11646       2   11634   11643       2   11628   11634
       2   11625   11634       2   11625   11637       2   11619   11628       2
   11616   11625       2   11604   11616       2   11601   11616       2   11601
   11619       2   11583   11604       2   11580   11595       2   11580   11601
       2   11577   11595       2   11574   11586       2   11568   11586       2
   11565   11580       2   11565   11583       2   11562   11574       2   11562
   11577       2   11559   11568       2   11556   11559       2   11556   11562
       2   11556   11565       2   11754   11760       2   11751   11760       2
   11745   11754       2   11742   11751       2   11736   11742       2   11733
   11742       2   11733   11745       2   11727   11736       2   11724   11733
       2   11712   11724       2   11709   11724       2   11709   11727       2
   11691   11712       2   11688   11703       2   11688   11709       2   11685
   11703       2   11682   11694       2   11676   11694       2   11673   11688
       2   11673   11691       2   11670   11682       2   11670   11685       2
   11667   11676       2   11664   11667       2   11664   11670       2   11664
   11673       2   11862   11868       2   11859   11868       2   11853   11862
       2   11850   11859       2   11844   11850       2   11841   11850       2
   11841   11853       2   11835   11844       2   11832   11841       2   11820
   11832       2   11817   11832       2   11817   11835       2   11799   11820
       2   11796   11811       2   11796   11817       2   11793   11811       2
   11790   11802       2   11784   11802       2   11781   11796       2   11781
   11799       2   11778   11790       2   11778   11793       2   11775   11784
       2   11772   11775       2   11772   11778       2   11772   11781       2
   11970   11976       2   11967   11976       2   11961   11970       2   11958
   11967       2   11952   11958       2   11949   11958       2   11949   11961
       2   11943   11952       2   11940   11949       2   11928   11940       2
   11925   11940       2   11925   11943       2   11907   11928       2   11904
   11919       2   11904   11925       2   11901   11919       2   11898   11910
       2   11892   11910       2   11889   11904       2   11889   11907       2
   11886   11898       2   11886   11901       2   11883   11892       2   11880
   11883       2   11880   11886       2   11880   11889       2   12078   12084
       2   12075   12084       2   12069   12078       2   12066   12075       2
   12060   12066       2   12057   12066       2   12057   12069       2   12051
   12060       2   12048   12057       2   12036   12048       2   12033   12048
       2   12033   12051       2   12015   12036       2   12012   12027       2
   12012   12033       2   12009   12027       2   12006   12018       2   12000
   12018       2   11997   12012       2   11997   12015       2   11994   12006
       2   11994   12009       2   11991   12000       2   11988   11991       2
   11988   11994       2   11988   11997       2   12186   12192       2   12183
   12192       2   12177   12186       2   12174   12183       2   12168   12174
       2   12165   12174       2   12165   12177       2   12159   12168       2
   12156   12165       2   12144   12156       2   12141   12156       2   12141
   12159       2   12123   12144       2   12120   12135       2   12120   12141
       2   12117   12135       2   12114   12126       2   12108   12126       2
   12105   12120       2   12105   12123       2   12102   12114       2   12102
   12117       2   12099   12108       2   12096   12099       2   12096   12102
       2   12096   12105       2   12294   12300       2   12291   12300       2
   12285   12294       2   12282   12291       2   12276   12282       2   12273
   12282       2   12273   12285       2   12267   12276       2   12264   12273
       2   12252   12264       2   12249   12264       2   12249   12267       2
   12231   12252       2   12228   12243       2   12228   12249       2   12225
   12243       2   12222   12234       2   12216   12234       2   12213   12228
       2   12213   12231       2   12210   12222       2   12210   12225       2
   12207   12216       2   12204   12207       2   12204   12210       2   12204
   12213       2   12402   12408       2   12399   12408       2   12393   12402
       2   12390   12399       2   12384   12390       2   12381   12390       2
   12381   12393       2   12375   12384       2   12372   12381       2   12360
   12372       2   12357   12372       2   12357   12375       2   12339   12360
       2   12336   12351       2   12336   12357       2   12333   12351       2
   12330   12342       2   12324   12342       2   12321   12336       2   12321
   12339       2   12318   12330       2   12318   12333       2   12315   12324
       2   12312   12315       2   12312   12318       2   12312   12321       2
   12510   12516       2   12507   12516       2   12501   12510       2   12498
   12507       2   12492   12498       2   12489   12498       2   12489   12501
       2   12483   12492       2   12480   12489       2   12468   12480       2
   12465   12480       2   12465   12483       2   12447   12468       2   12444
   12459       2   12444   12465       2   12441   12459       2   12438   12450
       2   12432   12450       2   12429   12444       2   12429   12447       2
   12426   12438       2   12426   12441       2   12423   12432       2   12420
   12423       2   12420   12426       2   12420   12429       2   12618   12624
       2   12615   12624       2   12609   12618       2   12606   12615       2
   12600   12606       2   12597   12606       2   12597   12609       2   12591
   12600       2   12588   12597       2   12576   12588       2   12573   12588
       2   12573   12591       2   12555   12576       2   12552   12567       2
   12552   12573       2   12549   12567       2   12546   12558       2   12540
   12558       2   12537   12552       2   12537   12555       2   12534   12546
       2   12534   12549       2   12531   12540       2   12528   12531       2
   12528   12534       2   12528   12537       2   12726   12732       2   12723
   12732       2   12717   12726       2   12714   12723       2   12708   12714
       2   12705   12714       2   12705   12717       2   12699   12708       2
   12696   12705       2   12684   12696       2   12681   12696       2   12681
   12699       2   12663   12684       2   12660   12675       2   12660   12681
       2   12657   12675       2   12654   12666       2   12648   12666       2
   12645   12660       2   12645   12663       2   12642   12654       2   12642
   12657       2   12639   12648       2   12636   12639       2   12636   12642
       2   12636   12645       2   12834   12840       2   12831   12840       2
   12825   12834       2   12822   12831       2   12816   12822       2   12813
   12822       2   12813   12825       2   12807   12816       2   12804   12813
       2   12792   12804       2   12789   12804       2   12789   12807       2
   12771   12792       2   12768   12783       2   12768   12789       2   12765
   12783       2   12762   12774       2   12756   12774       2   12753   12768
       2   12753   12771       2   12750   12762       2   12750   12765       2
   12747   12756       2   12744   12747       2   12744   12750       2   12744
   12753       2   12942   12948       2   12939   12948       2   12933   12942
       2   12930   12939       2   12924   12930       2   12921   12930       2
   12921   12933       2   12915   12924       2   12912   12921       2   12900
   12912       2   12897   12912       2   12897   12915       2   12879   12900
       2   12876   12891       2   12876   12897       2   12873   12891       2
   12870   12882       2   12864   12882       2   12861   12876       2   12861
   12879       2   12858   12870       2   12858   12873       2   12855   12864
       2   12852   12855       2   12852   12858       2   12852   12861       2
   13050   13056       2   13047   13056       2   13041   13050       2   13038
   13047       2   13032   13038       2   13029   13038       2   13029   13041
       2   13023   13032       2   13020   13029       2   13008   13020       2
   13005   13020       2   13005   13023       2   12987   13008       2   12984
   12999       2   12984   13005       2   12981   12999       2   12978   12990
       2   12972   12990       2   12969   12984       2   12969   12987       2
   12966   12978       2   12966   12981       2   12963   12972       2   12960
   12963       2   12960   12966       2   12960   12969       2   13158   13164
       2   13155   13164       2   13149   13158       2   13146   13155       2
   13140   13146       2   13137   13146       2   13137   13149       2   13131
   13140       2   13128   13137       2   13116   13128       2   13113   13128
       2   13113   13131       2   13095   13116       2   13092   13107       2
   13092   13113       2   13089   13107       2   13086   13098       2   13080
   13098       2   13077   13092       2   13077   13095       2   13074   13086
       2   13074   13089       2   13071   13080       2   13068   13071       2
   13068   13074       2   13068   13077       2   13266   13272       2   13263
   13272       2   13257   13266       2   13254   13263       2   13248   13254
       2   13245   13254       2   13245   13257       2   13239   13248       2
   13236   13245       2   13224   13236       2   13221   13236       2   13221
   13239       2   13203   13224       2   13200   13215       2   13200   13221
       2   13197   13215       2   13194   13206       2   13188   13206       2
   13185   13200       2   13185   13203       2   13182   13194       2   13182
   13197       2   13179   13188       2   13176   13179       2   13176   13182
       2   13176   13185       2   13374   13380       2   13371   13380       2
   13365   13374       2   13362   13371       2   13356   13362       2   13353
   13362       2   13353   13365       2   13347   13356       2   13344   13353
       2   13332   13344       2   13329   13344       2   13329   13347       2
   13311   13332       2   13308   13323       2   13308   13329       2   13305
   13323       2   13302   13314       2   13296   13314       2   13293   13308
       2   13293   13311       2   13290   13302       2   13290   13305       2
   13287   13296       2   13284   13287       2   13284   13290       2   13284
   13293       2   13482   13488       2   13479   13488       2   13473   13482
       2   13470   13479       2   13464   13470       2   13461   13470       2
   13461   13473       2   13455   13464       2   13452   13461       2   13440
   13452       2   13437   13452       2   13437   13455       2   13419   13440
       2   13416   13431       2   13416   13437       2   13413   13431       2
   13410   13422       2   13404   13422       2   13401   13416       2   13401
   13419       2   13398   13410       2   13398   13413       2   13395   13404
       2   13392   13395       2   13392   13398       2   13392   13401       2
   13590   13596       2   13587   13596       2   13581   13590       2   13578
   13587       2   13572   13578       2   13569   13578       2   13569   13581
       2   13563   13572       2   13560   13569       2   13548   13560       2
   13545   13560       2   13545   13563       2   13527   13548       2   13524
   13539       2   13524   13545       2   13521   13539       2   13518   13530
       2   13512   13530       2   13509   13524       2   13509   13527       2
   13506   13518       2   13506   13521       2   13503   13512       2   13500
   13503       2   13500   13506       2   13500   13509       2   13698   13704
       2   13695   13704       2   13689   13698       2   13686   13695       2
   13680   13686       2   13677   13686       2   13677   13689       2   13671
   13680       2   13668   13677       2   13656   13668       2   13653   13668
       2   13653   13671       2   13635   13656       2   13632   13647       2
   13632   13653       2   13629   13647       2   13626   13638       2   13620
   13638       2   13617   13632       2   13617   13635       2   13614   13626
       2   13614   13629       2   13611   13620       2   13608   13611       2
   13608   13614       2   13608   13617       2   13806   13812       2   13803
   13812       2   13797   13806       2   13794   13803       2   13788   13794
       2   13785   13794       2   13785   13797       2   13779   13788       2
   13776   13785       2   13764   13776       2   13761   13776       2   13761
   13779       2   13743   13764       2   13740   13755       2   13740   13761
       2   13737   13755       2   13734   13746       2   13728   13746       2
   13725   13740       2   13725   13743       2   13722   13734       2   13722
   13737       2   13719   13728       2   13716   13719       2   13716   13722
       2   13716   13725       2   13914   13920       2   13911   13920       2
   13905   13914       2   13902   13911       2   13896   13902       2   13893
   13902       2   13893   13905       2   13887   13896       2   13884   13893
       2   13872   13884       2   13869   13884       2   13869   13887       2
   13851   13872       2   13848   13863       2   13848   13869       2   13845
   13863       2   13842   13854       2   13836   13854       2   13833   13848
       2   13833   13851       2   13830   13842       2   13830   13845       2
   13827   13836       2   13824   13827       2   13824   13830       2   13824
   13833       2   14022   14028       2   14019   14028       2   14013   14022
       2   14010   14019       2   14004   14010       2   14001   14010       2
   14001   14013       2   13995   14004       2   13992   14001       2   13980
   13992       2   13977   13992       2   13977   13995       2   13959   13980
       2   13956   13971       2   13956   13977       2   13953   13971       2
   13950   13962       2   13944   13962       2   13941   13956       2   13941
   13959       2   13938   13950       2   13938   13953       2   13935   13944
       2   13932   13935       2   13932   13938       2   13932   13941       2
   14130   14136       2   14127   14136       2   14121   14130       2   14118
   14127       2   14112   14118       2   14109   14118       2   14109   14121
       2   14103   14112       2   14100   14109       2   14088   14100       2
   14085   14100       2   14085   14103       2   14067   14088       2   14064
   14079       2   14064   14085       2   14061   14079       2   14058   14070
       2   14052   14070       2   14049   14064       2   14049   14067       2
   14046   14058       2   14046   14061       2   14043   14052       2   14040
   14043       2   14040   14046       2   14040   14049       2   14238   14244
       2   14235   14244       2   14229   14238       2   14226   14235       2
   14220   14226       2   14217   14226       2   14217   14229       2   14211
   14220       2   14208   14217       2   14196   14208       2   14193   14208
       2   14193   14211       2   14175   14196       2   14172   14187       2
   14172   14193       2   14169   14187       2   14166   14178       2   14160
   14178       2   14157   14172       2   14157   14175       2   14154   14166
       2   14154   14169       2   14151   14160       2   14148   14151       2
   14148   14154       2   14148   14157       2   14346   14352       2   14343
   14352       2   14337   14346       2   14334   14343       2   14328   14334
       2   14325   14334       2   14325   14337       2   14319   14328       2
   14316   14325       2   14304   14316       2   14301   14316       2   14301
   14319       2   14283   14304       2   14280   14295       2   14280   14301
       2   14277   14295       2   14274   14286       2   14268   14286       2
   14265   14280       2   14265   14283       2   14262   14274       2   14262
   14277       2   14259   14268       2   14256   14259       2   14256   14262
       2   14256   14265       2   14454   14460       2   14451   14460       2
   14445   14454       2   14442   14451       2   14436   14442       2   14433
   14442       2   14433   14445       2   14427   14436       2   14424   14433
       2   14412   14424       2   14409   14424       2   14409   14427       2
   14391   14412       2   14388   14403       2   14388   14409       2   14385
   14403       2   14382   14394       2   14376   14394       2   14373   14388
       2   14373   14391       2   14370   14382       2   14370   14385       2
   14367   14376       2   14364   14367       2   14364   14370       2   14364
   14373       2   14562   14568       2   14559   14568       2   14553   14562
       2   14550   14559       2   14544   14550       2   14541   14550       2
   14541   14553       2   14535   14544       2   14532   14541       2   14520
   14532       2   14517   14532       2   14517   14535       2   14499   14520
       2   14496   14511       2   14496   14517       2   14493   14511       2
   14490   14502       2   14484   14502       2   14481   14496       2   14481
   14499       2   14478   14490       2   14478   14493       2   14475   14484
       2   14472   14475       2   14472   14478       2   14472   14481       2
   14670   14676       2   14667   14676       2   14661   14670       2   14658
   14667       2   14652   14658       2   14649   14658       2   14649   14661
       2   14643   14652       2   14640   14649       2   14628   14640       2
   14625   14640       2   14625   14643       2   14607   14628       2   14604
   14619       2   14604   14625       2   14601   14619       2   14598   14610
       2   14592   14610       2   14589   14604       2   14589   14607       2
   14586   14598       2   14586   14601       2   14583   14592       2   14580
   14583       2   14580   14586       2   14580   14589       2   14778   14784
       2   14775   14784       2   14769   14778       2   14766   14775       2
   14760   14766       2   14757   14766       2   14757   14769       2   14751
   14760       2   14748   14757       2   14736   14748       2   14733   14748
       2   14733   14751       2   14715   14736       2   14712   14727       2
   14712   14733       2   14709   14727       2   14706   14718       2   14700
   14718       2   14697   14712       2   14697   14715       2   14694   14706
       2   14694   14709       2   14691   14700       2   14688   14691       2
   14688   14694       2   14688   14697       2   14886   14892       2   14883
   14892       2   14877   14886       2   14874   14883       2   14868   14874
       2   14865   14874       2   14865   14877       2   14859   14868       2
   14856   14865       2   14844   14856       2   14841   14856       2   14841
   14859       2   14823   14844       2   14820   14835       2   14820   14841
       2   14817   14835       2   14814   14826       2   14808   14826       2
   14805   14820       2   14805   14823       2   14802   14814       2   14802
   14817       2   14799   14808       2   14796   14799       2   14796   14802
       2   14796   14805       2   14994   15000       2   14991   15000       2
   14985   14994       2   14982   14991       2   14976   14982       2   14973
   14982       2   14973   14985       2   14967   14976       2   14964   14973
       2   14952   14964       2   14949   14964       2   14949   14967       2
   14931   14952       2   14928   14943       2   14928   14949       2   14925
   14943       2   14922   14934       2   14916   14934       2   14913   14928
       2   14913   14931       2   14910   14922       2   14910   14925       2
   14907   14916       2   14904   14907       2   14904   14910       2   14904
   14913       2   15102   15108       2   15099   15108       2   15093   15102
       2   15090   15099       2   15084   15090       2   15081   15090       2
   15081   15093       2   15075   15084       2   15072   15081       2   15060
   15072       2   15057   15072       2   15057   15075       2   15039   15060
       2   15036   15051       2   15036   15057       2   15033   15051       2
   15030   15042       2   15024   15042       2   15021   15036       2   15021
   15039       2   15018   15030       2   15018   15033       2   15015   15024
       2   15012   15015       2   15012   15018       2   15012   15021       2
   15210   15216       2   15207   15216       2   15201   15210       2   15198
   15207       2   15192   15198       2   15189   15198       2   15189   15201
       2   15183   15192       2   15180   15189       2   15168   15180       2
   15165   15180       2   15165   15183       2   15147   15168       2   15144
   15159       2   15144   15165       2   15141   15159       2   15138   15150
       2   15132   15150       2   15129   15144       2   15129   15147       2
   15126   15138       2   15126   15141       2   15123   15132       2   15120
   15123       2   15120   15126       2   15120   15129       2   15318   15324
       2   15315   15324       2   15309   15318       2   15306   15315       2
   15300   15306       2   15297   15306       2   15297   15309       2   15291
   15300       2   15288   15297       2   15276   15288       2   15273   15288
       2   15273   15291       2   15255   15276       2   15252   15267       2
   15252   15273       2   15249   15267       2   15246   15258       2   15240
   15258       2   15237   15252       2   15237   15255       2   15234   15246
       2   15234   15249       2   15231   15240       2   15228   15231       2
   15228   15234       2   15228   15237       2   15426   15432       2   15423
   15432       2   15417   15426       2   15414   15423       2   15408   15414
       2   15405   15414       2   15405   15417       2   15399   15408       2
   15396   15405       2   15384   15396       2   15381   15396       2   15381
   15399       2   15363   15384       2   15360   15375       2   15360   15381
       2   15357   15375       2   15354   15366       2   15348   15366       2
   15345   15360       2   15345   15363       2   15342   15354       2   15342
   15357       2   15339   15348       2   15336   15339       2   15336   15342
       2   15336   15345       2   15534   15540       2   15531   15540       2
   15525   15534       2   15522   15531       2   15516   15522       2   15513
   15522       2   15513   15525       2   15507   15516       2   15504   15513
       2   15492   15504       2   15489   15504       2   15489   15507       2
   15471   15492       2   15468   15483       2   15468   15489       2   15465
   15483       2   15462   15474       2   15456   15474       2   15453   15468
       2   15453   15471       2   15450   15462       2   15450   15465       2
   15447   15456       2   15444   15447       2   15444   15450       2   15444
   15453       2   15642   15648       2   15639   15648       2   15633   15642
       2   15630   15639       2   15624   15630       2   15621   15630       2
   15621   15633       2   15615   15624       2   15612   15621       2   15600
   15612       2   15597   15612       2   15597   15615       2   15579   15600
       2   15576   15591       2   15576   15597       2   15573   15591       2
   15570   15582       2   15564   15582       2   15561   15576       2   15561
   15579       2   15558   15570       2   15558   15573       2   15555   15564
       2   15552   15555       2   15552   15558       2   15552   15561       2
   15750   15756       2   15747   15756       2   15741   15750       2   15738
   15747       2   15732   15738       2   15729   15738       2   15729   15741
       2   15723   15732       2   15720   15729       2   15708   15720       2
   15705   15720       2   15705   15723       2   15687   15708       2   15684
   15699       2   15684   15705       2   15681   15699       2   15678   15690
       2   15672   15690       2   15669   15684       2   15669   15687       2
   15666   15678       2   15666   15681       2   15663   15672       2   15660
   15663       2   15660   15666       2   15660   15669       2   15858   15864
       2   15855   15864       2   15849   15858       2   15846   15855       2
   15840   15846       2   15837   15846       2   15837   15849       2   15831
   15840       2   15828   15837       2   15816   15828       2   15813   15828
       2   15813   15831       2   15795   15816       2   15792   15807       2
   15792   15813       2   15789   15807       2   15786   15798       2   15780
   15798       2   15777   15792       2   15777   15795       2   15774   15786
       2   15774   15789       2   15771   15780       2   15768   15771       2
   15768   15774       2   15768   15777       2   15966   15972       2   15963
   15972       2   15957   15966       2   15954   15963       2   15948   15954
       2   15945   15954       2   15945   15957       2   15939   15948       2
   15936   15945       2   15924   15936       2   15921   15936       2   15921
   15939       2   15903   15924       2   15900   15915       2   15900   15921
       2   15897   15915       2   15894   15906       2   15888   15906       2
   15885   15900       2   15885   15903       2   15882   15894       2   15882
   15897       2   15879   15888       2   15876   15879       2   15876   15882
       2   15876   15885       2   16074   16080       2   16071   16080       2
   16065   16074       2   16062   16071       2   16056   16062       2   16053
   16062       2   16053   16065       2   16047   16056       2   16044   16053
       2   16032   16044       2   16029   16044       2   16029   16047       2
   16011   16032       2   16008   16023       2   16008   16029       2   16005
   16023       2   16002   16014       2   15996   16014       2   15993   16008
       2   15993   16011       2   15990   16002       2   15990   16005       2
   15987   15996       2   15984   15987       2   15984   15990       2   15984
   15993       2   16182   16188       2   16179   16188       2   16173   16182
       2   16170   16179       2   16164   16170       2   16161   16170       2
   16161   16173       2   16155   16164       2   16152   16161       2   16140
   16152       2   16137   16152       2   16137   16155       2   16119   16140
       2   16116   16131       2   16116   16137       2   16113   16131       2
   16110   16122       2   16104   16122       2   16101   16116       2   16101
   16119       2   16098   16110       2   16098   16113       2   16095   16104
       2   16092   16095       2   16092   16098       2   16092   16101       2
   16290   16296       2   16287   16296       2   16281   16290       2   16278
   16287       2   16272   16278       2   16269   16278       2   16269   16281
       2   16263   16272       2   16260   16269       2   16248   16260       2
   16245   16260       2   16245   16263       2   16227   16248       2   16224
   16239       2   16224   16245       2   16221   16239       2   16218   16230
       2   16212   16230       2   16209   16224       2   16209   16227       2
   16206   16218       2   16206   16221       2   16203   16212       2   16200
   16203       2   16200   16206       2   16200   16209       2   16398   16404
       2   16395   16404       2   16389   16398       2   16386   16395       2
   16380   16386       2   16377   16386       2   16377   16389       2   16371
   16380       2   16368   16377       2   16356   16368       2   16353   16368
       2   16353   16371       2   16335   16356       2   16332   16347       2
   16332   16353       2   16329   16347       2   16326   16338       2   16320
   16338       2   16317   16332       2   16317   16335       2   16314   16326
       2   16314   16329       2   16311   16320       2   16308   16311       2
   16308   16314       2   16308   16317       2   16506   16512       2   16503
   16512       2   16497   16506       2   16494   16503       2   16488   16494
       2   16485   16494       2   16485   16497       2   16479   16488       2
   16476   16485       2   16464   16476       2   16461   16476       2   16461
   16479       2   16443   16464       2   16440   16455       2   16440   16461
       2   16437   16455       2   16434   16446       2   16428   16446       2
   16425   16440       2   16425   16443       2   16422   16434       2   16422
   16437       2   16419   16428       2   16416   16419       2   16416   16422
       2   16416   16425       2   16614   16620       2   16611   16620       2
   16605   16614       2   16602   16611       2   16596   16602       2   16593
   16602       2   16593   16605       2   16587   16596       2   16584   16593
       2   16572   16584       2   16569   16584       2   16569   16587       2
   16551   16572       2   16548   16563       2   16548   16569       2   16545
   16563       2   16542   16554       2   16536   16554       2   16533   16548
       2   16533   16551       2   16530   16542       2   16530   16545       2
   16527   16536       2   16524   16527       2   16524   16530       2   16524
   16533       2   16722   16728       2   16719   16728       2   16713   16722
       2   16710   16719       2   16704   16710       2   16701   16710       2
   16701   16713       2   16695   16704       2   16692   16701       2   16680
   16692       2   16677   16692       2   16677   16695       2   16659   16680
       2   16656   16671       2   16656   16677       2   16653   16671       2
   16650   16662       2   16644   16662       2   16641   16656       2   16641
   16659       2   16638   16650       2   16638   16653       2   16635   16644
       2   16632   16635       2   16632   16638       2   16632   16641       2
   16830   16836       2   16827   16836       2   16821   16830       2   16818
   16827       2   16812   16818       2   16809   16818       2   16809   16821
       2   16803   16812       2   16800   16809       2   16788   16800       2
   16785   16800       2   16785   16803       2   16767   16788       2   16764
   16779       2   16764   16785       2   16761   16779       2   16758   16770
       2   16752   16770       2   16749   16764       2   16749   16767       2
   16746   16758       2   16746   16761       2   16743   16752       2   16740
   16743       2   16740   16746       2   16740   16749       2   16938   16944
       2   16935   16944       2   16929   16938       2   16926   16935       2
   16920   16926       2   16917   16926       2   16917   16929       2   16911
   16920       2   16908   16917       2   16896   16908       2   16893   16908
       2   16893   16911       2   16875   16896       2   16872   16887       2
   16872   16893       2   16869   16887       2   16866   16878       2   16860
   16878       2   16857   16872       2   16857   16875       2   16854   16866
       2   16854   16869       2   16851   16860       2   16848   16851       2
   16848   16854       2   16848   16857       2   17046   17052       2   17043
   17052       2   17037   17046       2   17034   17043       2   17028   17034
       2   17025   17034       2   17025   17037       2   17019   17028       2
   17016   17025       2   17004   17016       2   17001   17016       2   17001
   17019       2   16983   17004       2   16980   16995       2   16980   17001
       2   16977   16995       2   16974   16986       2   16968   16986       2
   16965   16980       2   16965   16983       2   16962   16974       2   16962
   16977       2   16959   16968       2   16956   16959       2   16956   16962
       2   16956   16965       2   17154   17160       2   17151   17160       2
   17145   17154       2   17142   17151       2   17136   17142       2   17133
   17142       2   17133   17145       2   17127   17136       2   17124   17133
       2   17112   17124       2   17109   17124       2   17109   17127       2
   17091   17112       2   17088   17103       2   17088   17109       2   17085
   17103       2   17082   17094       2   17076   17094       2   17073   17088
       2   17073   17091       2   17070   17082       2   17070   17085       2
   17067   17076       2   17064   17067       2   17064   17070       2   17064
   17073       2   17262   17268       2   17259   17268       2   17253   17262
       2   17250   17259       2   17244   17250       2   17241   17250       2
   17241   17253       2   17235   17244       2   17232   17241       2   17220
   17232       2   17217   17232       2   17217   17235       2   17199   17220
       2   17196   17211       2   17196   17217       2   17193   17211       2
   17190   17202       2   17184   17202       2   17181   17196       2   17181
   17199       2   17178   17190       2   17178   17193       2   17175   17184
       2   17172   17175       2   17172   17178       2   17172   17181       2
   17370   17376       2   17367   17376       2   17361   17370       2   17358
   17367       2   17352   17358       2   17349   17358       2   17349   17361
       2   17343   17352       2   17340   17349       2   17328   17340       2
   17325   17340       2   17325   17343       2   17307   17328       2   17304
   17319       2   17304   17325       2   17301   17319       2   17298   17310
       2   17292   17310       2   17289   17304       2   17289   17307       2
   17286   17298       2   17286   17301       2   17283   17292       2   17280
   17283       2   17280   17286       2   17280   17289       2   17478   17484
       2   17475   17484       2   17469   17478       2   17466   17475       2
   17460   17466       2   17457   17466       2   17457   17469       2   17451
   17460       2   17448   17457       2   17436   17448       2   17433   17448
       2   17433   17451       2   17415   17436       2   17412   17427       2
   17412   17433       2   17409   17427       2   17406   17418       2   17400
   17418       2   17397   17412       2   17397   17415       2   17394   17406
       2   17394   17409       2   17391   17400       2   17388   17391       2
   17388   17394       2   17388   17397       2   17586   17592       2   17583
   17592       2   17577   17586       2   17574   17583       2   17568   17574
       2   17565   17574       2   17565   17577       2   17559   17568       2
   17556   17565       2   17544   17556       2   17541   17556       2   17541
   17559       2   17523   17544       2   17520   17535       2   17520   17541
       2   17517   17535       2   17514   17526       2   17508   17526       2
   17505   17520       2   17505   17523       2   17502   17514       2   17502
   17517       2   17499   17508       2   17496   17499       2   17496   17502
       2   17496   17505       2   17694   17700       2   17691   17700       2
   17685   17694       2   17682   17691       2   17676   17682       2   17673
   17682       2   17673   17685       2   17667   17676       2   17664   17673
       2   17652   17664       2   17649   17664       2   17649   17667       2
   17631   17652       2   17628   17643       2   17628   17649       2   17625
   17643       2   17622   17634       2   17616   17634       2   17613   17628
       2   17613   17631       2   17610   17622       2   17610   17625       2
   17607   17616       2   17604   17607       2   17604   17610       2   17604
   17613       2   17802   17808       2   17799   17808       2   17793   17802
       2   17790   17799       2   17784   17790       2   17781   17790       2
   17781   17793       2   17775   17784       2   17772   17781       2   17760
   17772       2   17757   17772       2   17757   17775       2   17739   17760
       2   17736   17751       2   17736   17757       2   17733   17751       2
   17730   17742       2   17724   17742       2   17721   17736       2   17721
   17739       2   17718   17730       2   17718   17733       2   17715   17724
       2   17712   17715       2   17712   17718       2   17712   17721       2
   17910   17916       2   17907   17916       2   17901   17910       2   17898
   17907       2   17892   17898       2   17889   17898       2   17889   17901
       2   17883   17892       2   17880   17889       2   17868   17880       2
   17865   17880       2   17865   17883       2   17847   17868       2   17844
   17859       2   17844   17865       2   17841   17859       2   17838   17850
       2   17832   17850       2   17829   17844       2   17829   17847       2
   17826   17838       2   17826   17841       2   17823   17832       2   17820
   17823       2   17820   17826       2   17820   17829       2   18018   18024
       2   18015   18024       2   18009   18018       2   18006   18015       2
   18000   18006       2   17997   18006       2   17997   18009       2   17991
   18000       2   17988   17997       2   17976   17988       2   17973   17988
       2   17973   17991       2   17955   17976       2   17952   17967       2
   17952   17973       2   17949   17967       2   17946   17958       2   17940
   17958       2   17937   17952       2   17937   17955       2   17934   17946
       2   17934   17949       2   17931   17940       2   17928   17931       2
   17928   17934       2   17928   17937       2   18126   18132       2   18123
   18132       2   18117   18126       2   18114   18123       2   18108   18114
       2   18105   18114       2   18105   18117       2   18099   18108       2
   18096   18105       2   18084   18096       2   18081   18096       2   18081
   18099       2   18063   18084       2   18060   18075       2   18060   18081
       2   18057   18075       2   18054   18066       2   18048   18066       2
   18045   18060       2   18045   18063       2   18042   18054       2   18042
   18057       2   18039   18048       2   18036   18039       2   18036   18042
       2   18036   18045       2   18234   18240       2   18231   18240       2
   18225   18234       2   18222   18231       2   18216   18222       2   18213
   18222       2   18213   18225       2   18207   18216       2   18204   18213
       2   18192   18204       2   18189   18204       2   18189   18207       2
   18171   18192       2   18168   18183       2   18168   18189       2   18165
   18183       2   18162   18174       2   18156   18174       2   18153   18168
       2   18153   18171       2   18150   18162       2   18150   18165       2
   18147   18156       2   18144   18147       2   18144   18150       2   18144
   18153       2   18342   18348       2   18339   18348       2   18333   18342
       2   18330   18339       2   18324   18330       2   18321   18330       2
   18321   18333       2   18315   18324       2   18312   18321       2   18300
   18312       2   18297   18312       2   18297   18315       2   18279   18300
       2   18276   18291       2   18276   18297       2   18273   18291       2
   18270   18282       2   18264   18282       2   18261   18276       2   18261
   18279       2   18258   18270       2   18258   18273       2   18255   18264
       2   18252   18255       2   18252   18258       2   18252   18261       2
   18450   18456       2   18447   18456       2   18441   18450       2   18438
   18447       2   18432   18438       2   18429   18438       2   18429   18441
       2   18423   18432       2   18420   18429       2   18408   18420       2
   18405   18420       2   18405   18423       2   18387   18408       2   18384
   18399       2   18384   18405       2   18381   18399       2   18378   18390
       2   18372   18390       2   18369   18384       2   18369   18387       2
   18366   18378       2   18366   18381       2   18363   18372       2   18360
   18363       2   18360   18366       2   18360   18369       2   18558   18564
       2   18555   18564       2   18549   18558       2   18546   18555       2
   18540   18546       2   18537   18546       2   18537   18549       2   18531
   18540       2   18528   18537       2   18516   18528       2   18513   18528
       2   18513   18531       2   18495   18516       2   18492   18507       2
   18492   18513       2   18489   18507       2   18486   18498       2   18480
   18498       2   18477   18492       2   18477   18495       2   18474   18486
       2   18474   18489       2   18471   18480       2   18468   18471       2
   18468   18474       2   18468   18477       2   18666   18672       2   18663
   18672       2   18657   18666       2   18654   18663       2   18648   18654
       2   18645   18654       2   18645   18657       2   18639   18648       2
   18636   18645       2   18624   18636       2   18621   18636       2   18621
   18639       2   18603   18624       2   18600   18615       2   18600   18621
       2   18597   18615       2   18594   18606       2   18588   18606       2
   18585   18600       2   18585   18603       2   18582   18594       2   18582
   18597       2   18579   18588       2   18576   18579       2   18576   18582
       2   18576   18585       2   18774   18780       2   18771   18780       2
   18765   18774       2   18762   18771       2   18756   18762       2   18753
   18762       2   18753   18765       2   18747   18756       2   18744   18753
       2   18732   18744       2   18729   18744       2   18729   18747       2
   18711   18732       2   18708   18723       2   18708   18729       2   18705
   18723       2   18702   18714       2   18696   18714       2   18693   18708
       2   18693   18711       2   18690   18702       2   18690   18705       2
   18687   18696       2   18684   18687       2   18684   18690       2   18684
   18693       2   18882   18888       2   18879   18888       2   18873   18882
       2   18870   18879       2   18864   18870       2   18861   18870       2
   18861   18873       2   18855   18864       2   18852   18861       2   18840
   18852       2   18837   18852       2   18837   18855       2   18819   18840
       2   18816   18831       2   18816   18837       2   18813   18831       2
   18810   18822       2   18804   18822       2   18801   18816       2   18801
   18819       2   18798   18810       2   18798   18813       2   18795   18804
       2   18792   18795       2   18792   18798       2   18792   18801       2
   18990   18996       2   18987   18996       2   18981   18990       2   18978
   18987       2   18972   18978       2   18969   18978       2   18969   18981
       2   18963   18972       2   18960   18969       2   18948   18960       2
   18945   18960       2   18945   18963       2   18927   18948       2   18924
   18939       2   18924   18945       2   18921   18939       2   18918   18930
       2   18912   18930       2   18909   18924       2   18909   18927       2
   18906   18918       2   18906   18921       2   18903   18912       2   18900
   18903       2   18900   18906       2   18900   18909       2   19098   19104
       2   19095   19104       2   19089   19098       2   19086   19095       2
   19080   19086       2   19077   19086       2   19077   19089       2   19071
   19080       2   19068   19077       2   19056   19068       2   19053   19068
       2   19053   19071       2   19035   19056       2   19032   19047       2
   19032   19053       2   19029   19047       2   19026   19038       2   19020
   19038       2   19017   19032       2   19017   19035       2   19014   19026
       2   19014   19029       2   19011   19020       2   19008   19011       2
   19008   19014       2   19008   19017       2   19206   19212       2   19203
   19212       2   19197   19206       2   19194   19203       2   19188   19194
       2   19185   19194       2   19185   19197       2   19179   19188       2
   19176   19185       2   19164   19176       2   19161   19176       2   19161
   19179       2   19143   19164       2   19140   19155       2   19140   19161
       2   19137   19155       2   19134   19146       2   19128   19146       2
   19125   19140       2   19125   19143       2   19122   19134       2   19122
   19137       2   19119   19128       2   19116   19119       2   19116   19122
       2   19116   19125       2   19314   19320       2   19311   19320       2
   19305   19314       2   19302   19311       2   19296   19302       2   19293
   19302       2   19293   19305       2   19287   19296       2   19284   19293
       2   19272   19284       2   19269   19284       2   19269   19287       2
   19251   19272       2   19248   19263       2   19248   19269       2   19245
   19263       2   19242   19254       2   19236   19254       2   19233   19248
       2   19233   19251       2   19230   19242       2   19230   19245       2
   19227   19236       2   19224   19227       2   19224   19230       2   19224
   19233       2   19422   19428       2   19419   19428       2   19413   19422
       2   19410   19419       2   19404   19410       2   19401   19410       2
   19401   19413       2   19395   19404       2   19392   19401       2   19380
   19392       2   19377   19392       2   19377   19395       2   19359   19380
       2   19356   19371       2   19356   19377       2   19353   19371       2
   19350   19362       2   19344   19362       2   19341   19356       2   19341
   19359       2   19338   19350       2   19338   19353       2   19335   19344
       2   19332   19335       2   19332   19338       2   19332   19341       2
   19530   19536       2   19527   19536       2   19521   19530       2   19518
   19527       2   19512   19518       2   19509   19518       2   19509   19521
       2   19503   19512       2   19500   19509       2   19488   19500       2
   19485   19500       2   19485   19503       2   19467   19488       2   19464
   19479       2   19464   19485       2   19461   19479       2   19458   19470
       2   19452   19470       2   19449   19464       2   19449   19467       2
   19446   19458       2   19446   19461       2   19443   19452       2   19440
   19443       2   19440   19446       2   19440   19449       2   19638   19644
       2   19635   19644       2   19629   19638       2   19626   19635       2
   19620   19626       2   19617   19626       2   19617   19629       2   19611
   19620       2   19608   19617       2   19596   19608       2   19593   19608
       2   19593   19611       2   19575   19596       2   19572   19587       2
   19572   19593       2   19569   19587       2   19566   19578       2   19560
   19578       2   19557   19572       2   19557   19575       2   19554   19566
       2   19554   19569       2   19551   19560       2   19548   19551       2
   19548   19554       2   19548   19557       2   19746   19752       2   19743
   19752       2   19737   19746       2   19734   19743       2   19728   19734
       2   19725   19734       2   19725   19737       2   19719   19728       2
   19716   19725       2   19704   19716       2   19701   19716       2   19701
   19719       2   19683   19704       2   19680   19695       2   19680   19701
       2   19677   19695       2   19674   19686       2   19668   19686       2
   19665   19680       2   19665   19683       2   19662   19674       2   19662
   19677       2   19659   19668       2   19656   19659       2   19656   19662
       2   19656   19665       2   19854   19860       2   19851   19860       2
   19845   19854       2   19842   19851       2   19836   19842       2   19833
   19842       2   19833   19845       2   19827   19836       2   19824   19833
       2   19812   19824       2   19809   19824       2   19809   19827       2
   19791   19812       2   19788   19803       2   19788   19809       2   19785
   19803       2   19782   19794       2   19776   19794       2   19773   19788
       2   19773   19791       2   19770   19782       2   19770   19785       2
   19767   19776       2   19764   19767       2   19764   19770       2   19764
   19773       2   19962   19968       2   19959   19968       2   19953   19962
       2   19950   19959       2   19944   19950       2   19941   19950       2
   19941   19953       2   19935   19944       2   19932   19941       2   19920
   19932       2   19917   19932       2   19917   19935       2   19899   19920
       2   19896   19911       2   19896   19917       2   19893   19911       2
   19890   19902       2   19884   19902       2   19881   19896       2   19881
   19899       2   19878   19890       2   19878   19893       2   19875   19884
       2   19872   19875       2   19872   19878       2   19872   19881       2
   20070   20076       2   20067   20076       2   20061   20070       2   20058
   20067       2   20052   20058       2   20049   20058       2   20049   20061
       2   20043   20052       2   20040   20049       2   20028   20040       2
   20025   20040       2   20025   20043       2   20007   20028       2   20004
   20019       2   20004   20025       2   20001   20019       2   19998   20010
       2   19992   20010       2   19989   20004       2   19989   20007       2
   19986   19998       2   19986   20001       2   19983   19992       2   19980
   19983       2   19980   19986       2   19980   19989       2   20178   20184
       2   20175   20184       2   20169   20178       2   20166   20175       2
   20160   20166       2   20157   20166       2   20157   20169       2   20151
   20160       2   20148   20157       2   20136   20148       2   20133   20148
       2   20133   20151       2   20115   20136       2   20112   20127       2
   20112   20133       2   20109   20127       2   20106   20118       2   20100
   20118       2   20097   20112       2   20097   20115       2   20094   20106
       2   20094   20109       2   20091   20100       2   20088   20091       2
   20088   20094       2   20088   20097       2   20286   20292       2   20283
   20292       2   20277   20286       2   20274   20283       2   20268   20274
       2   20265   20274       2   20265   20277       2   20259   20268       2
   20256   20265       2   20244   20256       2   20241   20256       2   20241
   20259       2   20223   20244       2   20220   20235       2   20220   20241
       2   20217   20235       2   20214   20226       2   20208   20226       2
   20205   20220       2   20205   20223       2   20202   20214       2   20202
   20217       2   20199   20208       2   20196   20199       2   20196   20202
       2   20196   20205       2   20394   20400       2   20391   20400       2
   20385   20394       2   20382   20391       2   20376   20382       2   20373
   20382       2   20373   20385       2   20367   20376       2   20364   20373
       2   20352   20364       2   20349   20364       2   20349   20367       2
   20331   20352       2   20328   20343       2   20328   20349       2   20325
   20343       2   20322   20334       2   20316   20334       2   20313   20328
       2   20313   20331       2   20310   20322       2   20310   20325       2
   20307   20316       2   20304   20307       2   20304   20310       2   20304
   20313       2   20502   20508       2   20499   20508       2   20493   20502
       2   20490   20499       2   20484   20490       2   20481   20490       2
   20481   20493       2   20475   20484       2   20472   20481       2   20460
   20472       2   20457   20472       2   20457   20475       2   20439   20460
       2   20436   20451       2   20436   20457       2   20433   20451       2
   20430   20442       2   20424   20442       2   20421   20436       2   20421
   20439       2   20418   20430       2   20418   20433       2   20415   20424
       2   20412   20415       2   20412   20418       2   20412   20421       2
   20610   20616       2   20607   20616       2   20601   20610       2   20598
   20607       2   20592   20598       2   20589   20598       2   20589   20601
       2   20583   20592       2   20580   20589       2   20568   20580       2
   20565   20580       2   20565   20583       2   20547   20568       2   20544
   20559       2   20544   20565       2   20541   20559       2   20538   20550
       2   20532   20550       2   20529   20544       2   20529   20547       2
   20526   20538       2   20526   20541       2   20523   20532       2   20520
   20523       2   20520   20526       2   20520   20529       2   20718   20724
       2   20715   20724       2   20709   20718       2   20706   20715       2
   20700   20706       2   20697   20706       2   20697   20709       2   20691
   20700       2   20688   20697       2   20676   20688       2   20673   20688
       2   20673   20691       2   20655   20676       2   20652   20667       2
   20652   20673       2   20649   20667       2   20646   20658       2   20640
   20658       2   20637   20652       2   20637   20655       2   20634   20646
       2   20634   20649       2   20631   20640       2   20628   20631       2
   20628   20634       2   20628   20637       2   20826   20832       2   20823
   20832       2   20817   20826       2   20814   20823       2   20808   20814
       2   20805   20814       2   20805   20817       2   20799   20808       2
   20796   20805       2   20784   20796       2   20781   20796       2   20781
   20799       2   20763   20784       2   20760   20775       2   20760   20781
       2   20757   20775       2   20754   20766       2   20748   20766       2
   20745   20760       2   20745   20763       2   20742   20754       2   20742
   20757       2   20739   20748       2   20736   20739       2   20736   20742
       2   20736   20745       2   20934   20940       2   20931   20940       2
   20925   20934       2   20922   20931       2   20916   20922       2   20913
   20922       2   20913   20925       2   20907   20916       2   20904   20913
       2   20892   20904       2   20889   20904       2   20889   20907       2
   20871   20892       2   20868   20883       2   20868   20889       2   20865
   20883       2   20862   20874       2   20856   20874       2   20853   20868
       2   20853   20871       2   20850   20862       2   20850   20865       2
   20847   20856       2   20844   20847       2   20844   20850       2   20844
   20853       2   21042   21048       2   21039   21048       2   21033   21042
       2   21030   21039       2   21024   21030       2   21021   21030       2
   21021   21033       2   21015   21024       2   21012   21021       2   21000
   21012       2   20997   21012       2   20997   21015       2   20979   21000
       2   20976   20991       2   20976   20997       2   20973   20991       2
   20970   20982       2   20964   20982       2   20961   20976       2   20961
   20979       2   20958   20970       2   20958   20973       2   20955   20964
       2   20952   20955       2   20952   20958       2   20952   20961       2
   21150   21156       2   21147   21156       2   21141   21150       2   21138
   21147       2   21132   21138       2   21129   21138       2   21129   21141
       2   21123   21132       2   21120   21129       2   21108   21120       2
   21105   21120       2   21105   21123       2   21087   21108       2   21084
   21099       2   21084   21105       2   21081   21099       2   21078   21090
       2   21072   21090       2   21069   21084       2   21069   21087       2
   21066   21078       2   21066   21081       2   21063   21072       2   21060
   21063       2   21060   21066       2   21060   21069       2   21258   21264
       2   21255   21264       2   21249   21258       2   21246   21255       2
   21240   21246       2   21237   21246       2   21237   21249       2   21231
   21240       2   21228   21237       2   21216   21228       2   21213   21228
       2   21213   21231       2   21195   21216       2   21192   21207       2
   21192   21213       2   21189   21207       2   21186   21198       2   21180
   21198       2   21177   21192       2   21177   21195       2   21174   21186
       2   21174   21189       2   21171   21180       2   21168   21171       2
   21168   21174       2   21168   21177       2   21366   21372       2   21363
   21372       2   21357   21366       2   21354   21363       2   21348   21354
       2   21345   21354       2   21345   21357       2   21339   21348       2
   21336   21345       2   21324   21336       2   21321   21336       2   21321
   21339       2   21303   21324       2   21300   21315       2   21300   21321
       2   21297   21315       2   21294   21306       2   21288   21306       2
   21285   21300       2   21285   21303       2   21282   21294       2   21282
   21297       2   21279   21288       2   21276   21279       2   21276   21282
       2   21276   21285       2   21474   21480       2   21471   21480       2
   21465   21474       2   21462   21471       2   21456   21462       2   21453
   21462       2   21453   21465       2   21447   21456       2   21444   21453
       2   21432   21444       2   21429   21444       2   21429   21447       2
   21411   21432       2   21408   21423       2   21408   21429       2   21405
   21423       2   21402   21414       2   21396   21414       2   21393   21408
       2   21393   21411       2   21390   21402       2   21390   21405       2
   21387   21396       2   21384   21387       2   21384   21390       2   21384
   21393       2   21582   21588       2   21579   21588       2   21573   21582
       2   21570   21579       2   21564   21570       2   21561   21570       2
   21561   21573       2   21555   21564       2   21552   21561       2   21540
   21552       2   21537   21552       2   21537   21555       2   21519   21540
       2   21516   21531       2   21516   21537       2   21513   21531       2
   21510   21522       2   21504   21522       2   21501   21516       2   21501
   21519       2   21498   21510       2   21498   21513       2   21495   21504
       2   21492   21495       2   21492   21498       2   21492   21501       2
   21690   21696       2   21687   21696       2   21681   21690       2   21678
   21687       2   21672   21678       2   21669   21678       2   21669   21681
       2   21663   21672       2   21660   21669       2   21648   21660       2
   21645   21660       2   21645   21663       2   21627   21648       2   21624
   21639       2   21624   21645       2   21621   21639       2   21618   21630
       2   21612   21630       2   21609   21624       2   21609   21627       2
   21606   21618       2   21606   21621       2   21603   21612       2   21600
   21603       2   21600   21606       2   21600   21609       2   21798   21804
       2   21795   21804       2   21789   21798       2   21786   21795       2
   21780   21786       2   21777   21786       2   21777   21789       2   21771
   21780       2   21768   21777       2   21756   21768       2   21753   21768
       2   21753   21771       2   21735   21756       2   21732   21747       2
   21732   21753       2   21729   21747       2   21726   21738       2   21720
   21738       2   21717   21732       2   21717   21735       2   21714   21726
       2   21714   21729       2   21711   21720       2   21708   21711       2
   21708   21714       2   21708   21717       2   21906   21912       2   21903
   21912       2   21897   21906       2   21894   21903       2   21888   21894
       2   21885   21894       2   21885   21897       2   21879   21888       2
   21876   21885       2   21864   21876       2   21861   21876       2   21861
   21879       2   21843   21864       2   21840   21855       2   21840   21861
       2   21837   21855       2   21834   21846       2   21828   21846       2
   21825   21840       2   21825   21843       2   21822   21834       2   21822
   21837       2   21819   21828       2   21816   21819       2   21816   21822
       2   21816   21825       2   22014   22020       2   22011   22020       2
   22005   22014       2   22002   22011       2   21996   22002       2   21993
   22002       2   21993   22005       2   21987   21996       2   21984   21993
       2   21972   21984       2   21969   21984       2   21969   21987       2
   21951   21972       2   21948   21963       2   21948   21969       2   21945
   21963       2   21942   21954       2   21936   21954       2   21933   21948
       2   21933   21951       2   21930   21942       2   21930   21945       2
   21927   21936       2   21924   21927       2   21924   21930       2   21924
   21933       2   22122   22128       2   22119   22128       2   22113   22122
       2   22110   22119       2   22104   22110       2   22101   22110       2
   22101   22113       2   22095   22104       2   22092   22101       2   22080
   22092       2   22077   22092       2   22077   22095       2   22059   22080
       2   22056   22071       2   22056   22077       2   22053   22071       2
   22050   22062       2   22044   22062       2   22041   22056       2   22041
   22059       2   22038   22050       2   22038   22053       2   22035   22044
       2   22032   22035       2   22032   22038       2   22032   22041       2
   22230   22236       2   22227   22236       2   22221   22230       2   22218
   22227       2   22212   22218       2   22209   22218       2   22209   22221
       2   22203   22212       2   22200   22209       2   22188   22200       2
   22185   22200       2   22185   22203       2   22167   22188       2   22164
   22179       2   22164   22185       2   22161   22179       2   22158   22170
       2   22152   22170       2   22149   22164       2   22149   22167       2
   22146   22158       2   22146   22161       2   22143   22152       2   22140
   22143       2   22140   22146       2   22140   22149       2   22338   22344
       2   22335   22344       2   22329   22338       2   22326   22335       2
   22320   22326       2   22317   22326       2   22317   22329       2   22311
   22320       2   22308   22317       2   22296   22308       2   22293   22308
       2   22293   22311       2   22275   22296       2   22272   22287       2
   22272   22293       2   22269   22287       2   22266   22278       2   22260
   22278       2   22257   22272       2   22257   22275       2   22254   22266
       2   22254   22269       2   22251   22260       2   22248   22251       2
   22248   22254       2   22248   22257       2   22446   22452       2   22443
   22452       2   22437   22446       2   22434   22443       2   22428   22434
       2   22425   22434       2   22425   22437       2   22419   22428       2
   22416   22425       2   22404   22416       2   22401   22416       2   22401
   22419       2   22383   22404       2   22380   22395       2   22380   22401
       2   22377   22395       2   22374   22386       2   22368   22386       2
   22365   22380       2   22365   22383       2   22362   22374       2   22362
   22377       2   22359   22368       2   22356   22359       2   22356   22362
       2   22356   22365       2   22554   22560       2   22551   22560       2
   22545   22554       2   22542   22551       2   22536   22542       2   22533
   22542       2   22533   22545       2   22527   22536       2   22524   22533
       2   22512   22524       2   22509   22524       2   22509   22527       2
   22491   22512       2   22488   22503       2   22488   22509       2   22485
   22503       2   22482   22494       2   22476   22494       2   22473   22488
       2   22473   22491       2   22470   22482       2   22470   22485       2
   22467   22476       2   22464   22467       2   22464   22470       2   22464
   22473       2   22662   22668       2   22659   22668       2   22653   22662
       2   22650   22659       2   22644   22650       2   22641   22650       2
   22641   22653       2   22635   22644       2   22632   22641       2   22620
   22632       2   22617   22632       2   22617   22635       2   22599   22620
       2   22596   22611       2   22596   22617       2   22593   22611       2
   22590   22602       2   22584   22602       2   22581   22596       2   22581
   22599       2   22578   22590       2   22578   22593       2   22575   22584
       2   22572   22575       2   22572   22578       2   22572   22581       2
   22770   22776       2   22767   22776       2   22761   22770       2   22758
   22767       2   22752   22758       2   22749   22758       2   22749   22761
       2   22743   22752       2   22740   22749       2   22728   22740       2
   22725   22740       2   22725   22743       2   22707   22728       2   22704
   22719       2   22704   22725       2   22701   22719       2   22698   22710
       2   22692   22710       2   22689   22704       2   22689   22707       2
   22686   22698       2   22686   22701       2   22683   22692       2   22680
   22683       2   22680   22686       2   22680   22689       2   22878   22884
       2   22875   22884       2   22869   22878       2   22866   22875       2
   22860   22866       2   22857   22866       2   22857   22869       2   22851
   22860       2   22848   22857       2   22836   22848       2   22833   22848
       2   22833   22851       2   22815   22836       2   22812   22827       2
   22812   22833       2   22809   22827       2   22806   22818       2   22800
   22818       2   22797   22812       2   22797   22815       2   22794   22806
       2   22794   22809       2   22791   22800       2   22788   22791       2
   22788   22794       2   22788   22797       2   22986   22992       2   22983
   22992       2   22977   22986       2   22974   22983       2   22968   22974
       2   22965   22974       2   22965   22977       2   22959   22968       2
   22956   22965       2   22944   22956       2   22941   22956       2   22941
   22959       2   22923   22944       2   22920   22935       2   22920   22941
       2   22917   22935       2   22914   22926       2   22908   22926       2
   22905   22920       2   22905   22923       2   22902   22914       2   22902
   22917       2   22899   22908       2   22896   22899       2   22896   22902
       2   22896   22905       2   23094   23100       2   23091   23100       2
   23085   23094       2   23082   23091       2   23076   23082       2   23073
   23082       2   23073   23085       2   23067   23076       2   23064   23073
       2   23052   23064       2   23049   23064       2   23049   23067       2
   23031   23052       2   23028   23043       2   23028   23049       2   23025
   23043       2   23022   23034       2   23016   23034       2   23013   23028
       2   23013   23031       2   23010   23022       2   23010   23025       2
   23007   23016       2   23004   23007       2   23004   23010       2   23004
   23013       2   23202   23208       2   23199   23208       2   23193   23202
       2   23190   23199       2   23184   23190       2   23181   23190       2
   23181   23193       2   23175   23184       2   23172   23181       2   23160
   23172       2   23157   23172       2   23157   23175       2   23139   23160
       2   23136   23151       2   23136   23157       2   23133   23151       2
   23130   23142       2   23124   23142       2   23121   23136       2   23121
   23139       2   23118   23130       2   23118   23133       2   23115   23124
       2   23112   23115       2   23112   23118       2   23112   23121       2
   23310   23316       2   23307   23316       2   23301   23310       2   23298
   23307       2   23292   23298       2   23289   23298       2   23289   23301
       2   23283   23292       2   23280   23289       2   23268   23280       2
   23265   23280       2   23265   23283       2   23247   23268       2   23244
   23259       2   23244   23265       2   23241   23259       2   23238   23250
       2   23232   23250       2   23229   23244       2   23229   23247       2
   23226   23238       2   23226   23241       2   23223   23232       2   23220
   23223       2   23220   23226       2   23220   23229       2   23418   23424
       2   23415   23424       2   23409   23418       2   23406   23415       2
   23400   23406       2   23397   23406       2   23397   23409       2   23391
   23400       2   23388   23397       2   23376   23388       2   23373   23388
       2   23373   23391       2   23355   23376       2   23352   23367       2
   23352   23373       2   23349   23367       2   23346   23358       2   23340
   23358       2   23337   23352       2   23337   23355       2   23334   23346
       2   23334   23349       2   23331   23340       2   23328   23331       2
   23328   23334       2   23328   23337       2   23526   23532       2   23523
   23532       2   23517   23526       2   23514   23523       2   23508   23514
       2   23505   23514       2   23505   23517       2   23499   23508       2
   23496   23505       2   23484   23496       2   23481   23496       2   23481
   23499       2   23463   23484       2   23460   23475       2   23460   23481
       2   23457   23475       2   23454   23466       2   23448   23466       2
   23445   23460       2   23445   23463       2   23442   23454       2   23442
   23457       2   23439   23448       2   23436   23439       2   23436   23442
       2   23436   23445       2   23634   23640       2   23631   23640       2
   23625   23634       2   23622   23631       2   23616   23622       2   23613
   23622       2   23613   23625       2   23607   23616       2   23604   23613
       2   23592   23604       2   23589   23604       2   23589   23607       2
   23571   23592       2   23568   23583       2   23568   23589       2   23565
   23583       2   23562   23574       2   23556   23574       2   23553   23568
       2   23553   23571       2   23550   23562       2   23550   23565       2
   23547   23556       2   23544   23547       2   23544   23550       2   23544
   23553       2   23742   23748       2   23739   23748       2   23733   23742
       2   23730   23739       2   23724   23730       2   23721   23730       2
   23721   23733       2   23715   23724       2   23712   23721       2   23700
   23712       2   23697   23712       2   23697   23715       2   23679   23700
       2   23676   23691       2   23676   23697       2   23673   23691       2
   23670   23682       2   23664   23682       2   23661   23676       2   23661
   23679       2   23658   23670       2   23658   23673       2   23655   23664
       2   23652   23655       2   23652   23658       2   23652   23661       2
   23850   23856       2   23847   23856       2   23841   23850       2   23838
   23847       2   23832   23838       2   23829   23838       2   23829   23841
       2   23823   23832       2   23820   23829       2   23808   23820       2
   23805   23820       2   23805   23823       2   23787   23808       2   23784
   23799       2   23784   23805       2   23781   23799       2   23778   23790
       2   23772   23790       2   23769   23784       2   23769   23787       2
   23766   23778       2   23766   23781       2   23763   23772       2   23760
   23763       2   23760   23766       2   23760   23769       2   23958   23964
       2   23955   23964       2   23949   23958       2   23946   23955       2
   23940   23946       2   23937   23946       2   23937   23949       2   23931
   23940       2   23928   23937       2   23916   23928       2   23913   23928
       2   23913   23931       2   23895   23916       2   23892   23907       2
   23892   23913       2   23889   23907       2   23886   23898       2   23880
   23898       2   23877   23892       2   23877   23895       2   23874   23886
       2   23874   23889       2   23871   23880       2   23868   23871       2
   23868   23874       2   23868   23877       2   24066   24072       2   24063
   24072       2   24057   24066       2   24054   24063       2   24048   24054
       2   24045   24054       2   24045   24057       2   24039   24048       2
   24036   24045       2   24024   24036       2   24021   24036       2   24021
   24039       2   24003   24024       2   24000   24015       2   24000   24021
       2   23997   24015       2   23994   24006       2   23988   24006       2
   23985   24000       2   23985   24003       2   23982   23994       2   23982
   23997       2   23979   23988       2   23976   23979       2   23976   23982
       2   23976   23985       2   24174   24180       2   24171   24180       2
   24165   24174       2   24162   24171       2   24156   24162       2   24153
   24162       2   24153   24165       2   24147   24156       2   24144   24153
       2   24132   24144       2   24129   24144       2   24129   24147       2
   24111   24132       2   24108   24123       2   24108   24129       2   24105
   24123       2   24102   24114       2   24096   24114       2   24093   24108
       2   24093   24111       2   24090   24102       2   24090   24105       2
   24087   24096       2   24084   24087       2   24084   24090       2   24084
   24093       2   24282   24288       2   24279   24288       2   24273   24282
       2   24270   24279       2   24264   24270       2   24261   24270       2
   24261   24273       2   24255   24264       2   24252   24261       2   24240
   24252       2   24237   24252       2   24237   24255       2   24219   24240
       2   24216   24231       2   24216   24237       2   24213   24231       2
   24210   24222       2   24204   24222       2   24201   24216       2   24201
   24219       2   24198   24210       2   24198   24213       2   24195   24204
       2   24192   24195       2   24192   24198       2   24192   24201       2
   24390   24396       2   24387   24396       2   24381   24390       2   24378
   24387       2   24372   24378       2   24369   24378       2   24369   24381
       2   24363   24372       2   24360   24369       2   24348   24360       2
   24345   24360       2   24345   24363       2   24327   24348       2   24324
   24339       2   24324   24345       2   24321   24339       2   24318   24330
       2   24312   24330       2   24309   24324       2   24309   24327       2
   24306   24318       2   24306   24321       2   24303   24312       2   24300
   24303       2   24300   24306       2   24300   24309       2   24498   24504
       2   24495   24504       2   24489   24498       2   24486   24495       2
   24480   24486       2   24477   24486       2   24477   24489       2   24471
   24480       2   24468   24477       2   24456   24468       2   24453   24468
       2   24453   24471       2   24435   24456       2   24432   24447       2
   24432   24453       2   24429   24447       2   24426   24438       2   24420
   24438       2   24417   24432       2   24417   24435       2   24414   24426
       2   24414   24429       2   24411   24420       2   24408   24411       2
   24408   24414       2   24408   24417       2   24606   24612       2   24603
   24612       2   24597   24606       2   24594   24603       2   24588   24594
       2   24585   24594       2   24585   24597       2   24579   24588       2
   24576   24585       2   24564   24576       2   24561   24576       2   24561
   24579       2   24543   24564       2   24540   24555       2   24540   24561
       2   24537   24555       2   24534   24546       2   24528   24546       2
   24525   24540       2   24525   24543       2   24522   24534       2   24522
   24537       2   24519   24528       2   24516   24519       2   24516   24522
       2   24516   24525       2   24714   24720       2   24711   24720       2
   24705   24714       2   24702   24711       2   24696   24702       2   24693
   24702       2   24693   24705       2   24687   24696       2   24684   24693
       2   24672   24684       2   24669   24684       2   24669   24687       2
   24651   24672       2   24648   24663       2   24648   24669       2   24645
   24663       2   24642   24654       2   24636   24654       2   24633   24648
       2   24633   24651       2   24630   24642       2   24630   24645       2
   24627   24636       2   24624   24627       2   24624   24630       2   24624
   24633       2   24822   24828       2   24819   24828       2   24813   24822
       2   24810   24819       2   24804   24810       2   24801   24810       2
   24801   24813       2   24795   24804       2   24792   24801       2   24780
   24792       2   24777   24792       2   24777   24795       2   24759   24780
       2   24756   24771       2   24756   24777       2   24753   24771       2
   24750   24762       2   24744   24762       2   24741   24756       2   24741
   24759       2   24738   24750       2   24738   24753       2   24735   24744
       2   24732   24735       2   24732   24738       2   24732   24741       2
   24930   24936       2   24927   24936       2   24921   24930       2   24918
   24927       2   24912   24918       2   24909   24918       2   24909   24921
       2   24903   24912       2   24900   24909       2   24888   24900       2
   24885   24900       2   24885   24903       2   24867   24888       2   24864
   24879       2   24864   24885       2   24861   24879       2   24858   24870
       2   24852   24870       2   24849   24864       2   24849   24867       2
   24846   24858       2   24846   24861       2   24843   24852       2   24840
   24843       2   24840   24846       2   24840   24849       2   25038   25044
       2   25035   25044       2   25029   25038       2   25026   25035       2
   25020   25026       2   25017   25026       2   25017   25029       2   25011
   25020       2   25008   25017       2   24996   25008       2   24993   25008
       2   24993   25011       2   24975   24996       2   24972   24987       2
   24972   24993       2   24969   24987       2   24966   24978       2   24960
   24978       2   24957   24972       2   24957   24975       2   24954   24966
       2   24954   24969       2   24951   24960       2   24948   24951       2
   24948   24954       2   24948   24957       2   25146   25152       2   25143
   25152       2   25137   25146       2   25134   25143       2   25128   25134
       2   25125   25134       2   25125   25137       2   25119   25128       2
   25116   25125       2   25104   25116       2   25101   25116       2   25101
   25119       2   25083   25104       2   25080   25095       2   25080   25101
       2   25077   25095       2   25074   25086       2   25068   25086       2
   25065   25080       2   25065   25083       2   25062   25074       2   25062
   25077       2   25059   25068       2   25056   25059       2   25056   25062
       2   25056   25065       2   25254   25260       2   25251   25260       2
   25245   25254       2   25242   25251       2   25236   25242       2   25233
   25242       2   25233   25245       2   25227   25236       2   25224   25233
       2   25212   25224       2   25209   25224       2   25209   25227       2
   25191   25212       2   25188   25203       2   25188   25209       2   25185
   25203       2   25182   25194       2   25176   25194       2   25173   25188
       2   25173   25191       2   25170   25182       2   25170   25185       2
   25167   25176       2   25164   25167       2   25164   25170       2   25164
   25173       2   25362   25368       2   25359   25368       2   25353   25362
       2   25350   25359       2   25344   25350       2   25341   25350       2
   25341   25353       2   25335   25344       2   25332   25341       2   25320
   25332       2   25317   25332       2   25317   25335       2   25299   25320
       2   25296   25311       2   25296   25317       2   25293   25311       2
   25290   25302       2   25284   25302       2   25281   25296       2   25281
   25299       2   25278   25290       2   25278   25293       2   25275   25284
       2   25272   25275       2   25272   25278       2   25272   25281       2
   25470   25476       2   25467   25476       2   25461   25470       2   25458
   25467       2   25452   25458       2   25449   25458       2   25449   25461
       2   25443   25452       2   25440   25449       2   25428   25440       2
   25425   25440       2   25425   25443       2   25407   25428       2   25404
   25419       2   25404   25425       2   25401   25419       2   25398   25410
       2   25392   25410       2   25389   25404       2   25389   25407       2
   25386   25398       2   25386   25401       2   25383   25392       2   25380
   25383       2   25380   25386       2   25380   25389       2   25578   25584
       2   25575   25584       2   25569   25578       2   25566   25575       2
   25560   25566       2   25557   25566       2   25557   25569       2   25551
   25560       2   25548   25557       2   25536   25548       2   25533   25548
       2   25533   25551       2   25515   25536       2   25512   25527       2
   25512   25533       2   25509   25527       2   25506   25518       2   25500
   25518       2   25497   25512       2   25497   25515       2   25494   25506
       2   25494   25509       2   25491   25500       2   25488   25491       2
   25488   25494       2   25488   25497       2   25686   25692       2   25683
   25692       2   25677   25686       2   25674   25683       2   25668   25674
       2   25665   25674       2   25665   25677       2   25659   25668       2
   25656   25665       2   25644   25656       2   25641   25656       2   25641
   25659       2   25623   25644       2   25620   25635       2   25620   25641
       2   25617   25635       2   25614   25626       2   25608   25626       2
   25605   25620       2   25605   25623       2   25602   25614       2   25602
   25617       2   25599   25608       2   25596   25599       2   25596   25602
       2   25596   25605       2   25794   25800       2   25791   25800       2
   25785   25794       2   25782   25791       2   25776   25782       2   25773
   25782       2   25773   25785       2   25767   25776       2   25764   25773
       2   25752   25764       2   25749   25764       2   25749   25767       2
   25731   25752       2   25728   25743       2   25728   25749       2   25725
   25743       2   25722   25734       2   25716   25734       2   25713   25728
       2   25713   25731       2   25710   25722       2   25710   25725       2
   25707   25716       2   25704   25707       2   25704   25710       2   25704
   25713       2   25902   25908       2   25899   25908       2   25893   25902
       2   25890   25899       2   25884   25890       2   25881   25890       2
   25881   25893       2   25875   25884       2   25872   25881       2   25860
   25872       2   25857   25872       2   25857   25875       2   25839   25860
       2   25836   25851       2   25836   25857       2   25833   25851       2
   25830   25842       2   25824   25842       2   25821   25836       2   25821
   25839       2   25818   25830       2   25818   25833       2   25815   25824
       2   25812   25815       2   25812   25818       2   25812   25821       2
   26010   26016       2   26007   26016       2   26001   26010       2   25998
   26007       2   25992   25998       2   25989   25998       2   25989   26001
       2   25983   25992       2   25980   25989       2   25968   25980       2
   25965   25980       2   25965   25983       2   25947   25968       2   25944
   25959       2   25944   25965       2   25941   25959       2   25938   25950
       2   25932   25950       2   25929   25944       2   25929   25947       2
   25926   25938       2   25926   25941       2   25923   25932       2   25920
   25923       2   25920   25926       2   25920   25929       2   26118   26124
       2   26115   26124       2   26109   26118       2   26106   26115       2
   26100   26106       2   26097   26106       2   26097   26109       2   26091
   26100       2   26088   26097       2   26076   26088       2   26073   26088
       2   26073   26091       2   26055   26076       2   26052   26067       2
   26052   26073       2   26049   26067       2   26046   26058       2   26040
   26058       2   26037   26052       2   26037   26055       2   26034   26046
       2   26034   26049       2   26031   26040       2   26028   26031       2
   26028   26034       2   26028   26037       2   26226   26232       2   26223
   26232       2   26217   26226       2   26214   26223       2   26208   26214
       2   26205   26214       2   26205   26217       2   26199   26208       2
   26196   26205       2   26184   26196       2   26181   26196       2   26181
   26199       2   26163   26184       2   26160   26175       2   26160   26181
       2   26157   26175       2   26154   26166       2   26148   26166       2
   26145   26160       2   26145   26163       2   26142   26154       2   26142
   26157       2   26139   26148       2   26136   26139       2   26136   26142
       2   26136   26145       2   26334   26340       2   26331   26340       2
   26325   26334       2   26322   26331       2   26316   26322       2   26313
   26322       2   26313   26325       2   26307   26316       2   26304   26313
       2   26292   26304       2   26289   26304       2   26289   26307       2
   26271   26292       2   26268   26283       2   26268   26289       2   26265
   26283       2   26262   26274       2   26256   26274       2   26253   26268
       2   26253   26271       2   26250   26262       2   26250   26265       2
   26247   26256       2   26244   26247       2   26244   26250       2   26244
   26253       2   26442   26448       2   26439   26448       2   26433   26442
       2   26430   26439       2   26424   26430       2   26421   26430       2
   26421   26433       2   26415   26424       2   26412   26421       2   26400
   26412       2   26397   26412       2   26397   26415       2   26379   26400
       2   26376   26391       2   26376   26397       2   26373   26391       2
   26370   26382       2   26364   26382       2   26361   26376       2   26361
   26379       2   26358   26370       2   26358   26373       2   26355   26364
       2   26352   26355       2   26352   26358       2   26352   26361       2
   26550   26556       2   26547   26556       2   26541   26550       2   26538
   26547       2   26532   26538       2   26529   26538       2   26529   26541
       2   26523   26532       2   26520   26529       2   26508   26520       2
   26505   26520       2   26505   26523       2   26487   26508       2   26484
   26499       2   26484   26505       2   26481   26499       2   26478   26490
       2   26472   26490       2   26469   26484       2   26469   26487       2
   26466   26478       2   26466   26481       2   26463   26472       2   26460
   26463       2   26460   26466       2   26460   26469       2   26658   26664
       2   26655   26664       2   26649   26658       2   26646   26655       2
   26640   26646       2   26637   26646       2   26637   26649       2   26631
   26640       2   26628   26637       2   26616   26628       2   26613   26628
       2   26613   26631       2   26595   26616       2   26592   26607       2
   26592   26613       2   26589   26607       2   26586   26598       2   26580
   26598       2   26577   26592       2   26577   26595       2   26574   26586
       2   26574   26589       2   26571   26580       2   26568   26571       2
   26568   26574       2   26568   26577       2   26766   26772       2   26763
   26772       2   26757   26766       2   26754   26763       2   26748   26754
       2   26745   26754       2   26745   26757       2   26739   26748       2
   26736   26745       2   26724   26736       2   26721   26736       2   26721
   26739       2   26703   26724       2   26700   26715       2   26700   26721
       2   26697   26715       2   26694   26706       2   26688   26706       2
   26685   26700       2   26685   26703       2   26682   26694       2   26682
   26697       2   26679   26688       2   26676   26679       2   26676   26682
       2   26676   26685       2   26874   26880       2   26871   26880       2
   26865   26874       2   26862   26871       2   26856   26862       2   26853
   26862       2   26853   26865       2   26847   26856       2   26844   26853
       2   26832   26844       2   26829   26844       2   26829   26847       2
   26811   26832       2   26808   26823       2   26808   26829       2   26805
   26823       2   26802   26814       2   26796   26814       2   26793   26808
       2   26793   26811       2   26790   26802       2   26790   26805       2
   26787   26796       2   26784   26787       2   26784   26790       2   26784
   26793       2   26982   26988       2   26979   26988       2   26973   26982
       2   26970   26979       2   26964   26970       2   26961   26970       2
   26961   26973       2   26955   26964       2   26952   26961       2   26940
   26952       2   26937   26952       2   26937   26955       2   26919   26940
       2   26916   26931       2   26916   26937       2   26913   26931       2
   26910   26922       2   26904   26922       2   26901   26916       2   26901
   26919       2   26898   26910       2   26898   26913       2   26895   26904
       2   26892   26895       2   26892   26898       2   26892   26901       2
   27090   27096       2   27087   27096       2   27081   27090       2   27078
   27087       2   27072   27078       2   27069   27078       2   27069   27081
       2   27063   27072       2   27060   27069       2   27048   27060       2
   27045   27060       2   27045   27063       2   27027   27048       2   27024
   27039       2   27024   27045       2   27021   27039       2   27018   27030
       2   27012   27030       2   27009   27024       2   27009   27027       2
   27006   27018       2   27006   27021       2   27003   27012       2   27000
   27003       2   27000   27006       2   27000   27009       2   27198   27204
       2   27195   27204       2   27189   27198       2   27186   27195       2
   27180   27186       2   27177   27186       2   27177   27189       2   27171
   27180       2   27168   27177       2   27156   27168       2   27153   27168
       2   27153   27171       2   27135   27156       2   27132   27147       2
   27132   27153       2   27129   27147       2   27126   27138       2   27120
   27138       2   27117   27132       2   27117   27135       2   27114   27126
       2   27114   27129       2   27111   27120       2   27108   27111       2
   27108   27114       2   27108   27117       2   27306   27312       2   27303
   27312       2   27297   27306       2   27294   27303       2   27288   27294
       2   27285   27294       2   27285   27297       2   27279   27288       2
   27276   27285       2   27264   27276       2   27261   27276       2   27261
   27279       2   27243   27264       2   27240   27255       2   27240   27261
       2   27237   27255       2   27234   27246       2   27228   27246       2
   27225   27240       2   27225   27243       2   27222   27234       2   27222
   27237       2   27219   27228       2   27216   27219       2   27216   27222
       2   27216   27225       2   27414   27420       2   27411   27420       2
   27405   27414       2   27402   27411       2   27396   27402       2   27393
   27402       2   27393   27405       2   27387   27396       2   27384   27393
       2   27372   27384       2   27369   27384       2   27369   27387       2
   27351   27372       2   27348   27363       2   27348   27369       2   27345
   27363       2   27342   27354       2   27336   27354       2   27333   27348
       2   27333   27351       2   27330   27342       2   27330   27345       2
   27327   27336       2   27324   27327       2   27324   27330       2   27324
   27333       2   27522   27528       2   27519   27528       2   27513   27522
       2   27510   27519       2   27504   27510       2   27501   27510       2
   27501   27513       2   27495   27504       2   27492   27501       2   27480
   27492       2   27477   27492       2   27477   27495       2   27459   27480
       2   27456   27471       2   27456   27477       2   27453   27471       2
   27450   27462       2   27444   27462       2   27441   27456       2   27441
   27459       2   27438   27450       2   27438   27453       2   27435   27444
       2   27432   27435       2   27432   27438       2   27432   27441       2
   27630   27636       2   27627   27636       2   27621   27630       2   27618
   27627       2   27612   27618       2   27609   27618       2   27609   27621
       2   27603   27612       2   27600   27609       2   27588   27600       2
   27585   27600       2   27585   27603       2   27567   27588       2   27564
   27579       2   27564   27585       2   27561   27579       2   27558   27570
       2   27552   27570       2   27549   27564       2   27549   27567       2
   27546   27558       2   27546   27561       2   27543   27552       2   27540
   27543       2   27540   27546       2   27540   27549       2   27738   27744
       2   27735   27744       2   27729   27738       2   27726   27735       2
   27720   27726       2   27717   27726       2   27717   27729       2   27711
   27720       2   27708   27717       2   27696   27708       2   27693   27708
       2   27693   27711       2   27675   27696       2   27672   27687       2
   27672   27693       2   27669   27687       2   27666   27678       2   27660
   27678       2   27657   27672       2   27657   27675       2   27654   27666
       2   27654   27669       2   27651   27660       2   27648   27651       2
   27648   27654       2   27648   27657       2   27846   27852       2   27843
   27852       2   27837   27846       2   27834   27843       2   27828   27834
       2   27825   27834       2   27825   27837       2   27819   27828       2
   27816   27825       2   27804   27816       2   27801   27816       2   27801
   27819       2   27783   27804       2   27780   27795       2   27780   27801
       2   27777   27795       2   27774   27786       2   27768   27786       2
   27765   27780       2   27765   27783       2   27762   27774       2   27762
   27777       2   27759   27768       2   27756   27759       2   27756   27762
       2   27756   27765       2   27954   27960       2   27951   27960       2
   27945   27954       2   27942   27951       2   27936   27942       2   27933
   27942       2   27933   27945       2   27927   27936       2   27924   27933
       2   27912   27924       2   27909   27924       2   27909   27927       2
   27891   27912       2   27888   27903       2   27888   27909       2   27885
   27903       2   27882   27894       2   27876   27894       2   27873   27888
       2   27873   27891       2   27870   27882       2   27870   27885       2
   27867   27876       2   27864   27867       2   27864   27870       2   27864
   27873       2   28062   28068       2   28059   28068       2   28053   28062
       2   28050   28059       2   28044   28050       2   28041   28050       2
   28041   28053       2   28035   28044       2   28032   28041       2   28020
   28032       2   28017   28032       2   28017   28035       2   27999   28020
       2   27996   28011       2   27996   28017       2   27993   28011       2
   27990   28002       2   27984   28002       2   27981   27996       2   27981
   27999       2   27978   27990       2   27978   27993       2   27975   27984
       2   27972   27975       2   27972   27978       2   27972   27981       2
   28170   28176       2   28167   28176       2   28161   28170       2   28158
   28167       2   28152   28158       2   28149   28158       2   28149   28161
       2   28143   28152       2   28140   28149       2   28128   28140       2
   28125   28140       2   28125   28143       2   28107   28128       2   28104
   28119       2   28104   28125       2   28101   28119       2   28098   28110
       2   28092   28110       2   28089   28104       2   28089   28107       2
   28086   28098       2   28086   28101       2   28083   28092       2   28080
   28083       2   28080   28086       2   28080   28089       2   28278   28284
       2   28275   28284       2   28269   28278       2   28266   28275       2
   28260   28266       2   28257   28266       2   28257   28269       2   28251
   28260       2   28248   28257       2   28236   28248       2   28233   28248
       2   28233   28251       2   28215   28236       2   28212   28227       2
   28212   28233       2   28209   28227       2   28206   28218       2   28200
   28218       2   28197   28212       2   28197   28215       2   28194   28206
       2   28194   28209       2   28191   28200       2   28188   28191       2
   28188   28194       2   28188   28197       2   28386   28392       2   28383
   28392       2   28377   28386       2   28374   28383       2   28368   28374
       2   28365   28374       2   28365   28377       2   28359   28368       2
   28356   28365       2   28344   28356       2   28341   28356       2   28341
   28359       2   28323   28344       2   28320   28335       2   28320   28341
       2   28317   28335       2   28314   28326       2   28308   28326       2
   28305   28320       2   28305   28323       2   28302   28314       2   28302
   28317       2   28299   28308       2   28296   28299       2   28296   28302
       2   28296   28305       2   28494   28500       2   28491   28500       2
   28485   28494       2   28482   28491       2   28476   28482       2   28473
   28482       2   28473   28485       2   28467   28476       2   28464   28473
       2   28452   28464       2   28449   28464       2   28449   28467       2
   28431   28452       2   28428   28443       2   28428   28449       2   28425
   28443       2   28422   28434       2   28416   28434       2   28413   28428
       2   28413   28431       2   28410   28422       2   28410   28425       2
   28407   28416       2   28404   28407       2   28404   28410       2   28404
   28413       2   28602   28608       2   28599   28608       2   28593   28602
       2   28590   28599       2   28584   28590       2   28581   28590       2
   28581   28593       2   28575   28584       2   28572   28581       2   28560
   28572       2   28557   28572       2   28557   28575       2   28539   28560
       2   28536   28551       2   28536   28557       2   28533   28551       2
   28530   28542       2   28524   28542       2   28521   28536       2   28521
   28539       2   28518   28530       2   28518   28533       2   28515   28524
       2   28512   28515       2   28512   28518       2   28512   28521       2
   28710   28716       2   28707   28716       2   28701   28710       2   28698
   28707       2   28692   28698       2   28689   28698       2   28689   28701
       2   28683   28692       2   28680   28689       2   28668   28680       2
   28665   28680       2   28665   28683       2   28647   28668       2   28644
   28659       2   28644   28665       2   28641   28659       2   28638   28650
       2   28632   28650       2   28629   28644       2   28629   28647       2
   28626   28638       2   28626   28641       2   28623   28632       2   28620
   28623       2   28620   28626       2   28620   28629       2   28818   28824
       2   28815   28824       2   28809   28818       2   28806   28815       2
   28800   28806       2   28797   28806       2   28797   28809       2   28791
   28800       2   28788   28797       2   28776   28788       2   28773   28788
       2   28773   28791       2   28755   28776       2   28752   28767       2
   28752   28773       2   28749   28767       2   28746   28758       2   28740
   28758       2   28737   28752       2   28737   28755       2   28734   28746
       2   28734   28749       2   28731   28740       2   28728   28731       2
   28728   28734       2   28728   28737       2   28926   28932       2   28923
   28932       2   28917   28926       2   28914   28923       2   28908   28914
       2   28905   28914       2   28905   28917       2   28899   28908       2
   28896   28905       2   28884   28896       2   28881   28896       2   28881
   28899       2   28863   28884       2   28860   28875       2   28860   28881
       2   28857   28875       2   28854   28866       2   28848   28866       2
   28845   28860       2   28845   28863       2   28842   28854       2   28842
   28857       2   28839   28848       2   28836   28839       2   28836   28842
       2   28836   28845       2   29034   29040       2   29031   29040       2
   29025   29034       2   29022   29031       2   29016   29022       2   29013
   29022       2   29013   29025       2   29007   29016       2   29004   29013
       2   28992   29004       2   28989   29004       2   28989   29007       2
   28971   28992       2   28968   28983       2   28968   28989       2   28965
   28983       2   28962   28974       2   28956   28974       2   28953   28968
       2   28953   28971       2   28950   28962       2   28950   28965       2
   28947   28956       2   28944   28947       2   28944   28950       2   28944
   28953       2   29142   29148       2   29139   29148       2   29133   29142
       2   29130   29139       2   29124   29130       2   29121   29130       2
   29121   29133       2   29115   29124       2   29112   29121       2   29100
   29112       2   29097   29112       2   29097   29115       2   29079   29100
       2   29076   29091       2   29076   29097       2   29073   29091       2
   29070   29082       2   29064   29082       2   29061   29076       2   29061
   29079       2   29058   29070       2   29058   29073       2   29055   29064
       2   29052   29055       2   29052   29058       2   29052   29061       2
   29250   29256       2   29247   29256       2   29241   29250       2   29238
   29247       2   29232   29238       2   29229   29238       2   29229   29241
       2   29223   29232       2   29220   29229       2   29208   29220       2
   29205   29220       2   29205   29223       2   29187   29208       2   29184
   29199       2   29184   29205       2   29181   29199       2   29178   29190
       2   29172   29190       2   29169   29184       2   29169   29187       2
   29166   29178       2   29166   29181       2   29163   29172       2   29160
   29163       2   29160   29166       2   29160   29169       2   29358   29364
       2   29355   29364       2   29349   29358       2   29346   29355       2
   29340   29346       2   29337   29346       2   29337   29349       2   29331
   29340       2   29328   29337       2   29316   29328       2   29313   29328
       2   29313   29331       2   29295   29316       2   29292   29307       2
   29292   29313       2   29289   29307       2   29286   29298       2   29280
   29298       2   29277   29292       2   29277   29295       2   29274   29286
       2   29274   29289       2   29271   29280       2   29268   29271       2
   29268   29274       2   29268   29277       2   29466   29472       2   29463
   29472       2   29457   29466       2   29454   29463       2   29448   29454
       2   29445   29454       2   29445   29457       2   29439   29448       2
   29436   29445       2   29424   29436       2   29421   29436       2   29421
   29439       2   29403   29424       2   29400   29415       2   29400   29421
       2   29397   29415       2   29394   29406       2   29388   29406       2
   29385   29400       2   29385   29403       2   29382   29394       2   29382
   29397       2   29379   29388       2   29376   29379       2   29376   29382
       2   29376   29385       2   29574   29580       2   29571   29580       2
   29565   29574       2   29562   29571       2   29556   29562       2   29553
   29562       2   29553   29565       2   29547   29556       2   29544   29553
       2   29532   29544       2   29529   29544       2   29529   29547       2
   29511   29532       2   29508   29523       2   29508   29529       2   29505
   29523       2   29502   29514       2   29496   29514       2   29493   29508
       2   29493   29511       2   29490   29502       2   29490   29505       2
   29487   29496       2   29484   29487       2   29484   29490       2   29484
   29493       2   29682   29688       2   29679   29688       2   29673   29682
       2   29670   29679       2   29664   29670       2   29661   29670       2
   29661   29673       2   29655   29664       2   29652   29661       2   29640
   29652       2   29637   29652       2   29637   29655       2   29619   29640
       2   29616   29631       2   29616   29637       2   29613   29631       2
   29610   29622       2   29604   29622       2   29601   29616       2   29601
   29619       2   29598   29610       2   29598   29613       2   29595   29604
       2   29592   29595       2   29592   29598       2   29592   29601       2
   29790   29796       2   29787   29796       2   29781   29790       2   29778
   29787       2   29772   29778       2   29769   29778       2   29769   29781
       2   29763   29772       2   29760   29769       2   29748   29760       2
   29745   29760       2   29745   29763       2   29727   29748       2   29724
   29739       2   29724   29745       2   29721   29739       2   29718   29730
       2   29712   29730       2   29709   29724       2   29709   29727       2
   29706   29718       2   29706   29721       2   29703   29712       2   29700
   29703       2   29700   29706       2   29700   29709       2   29898   29904
       2   29895   29904       2   29889   29898       2   29886   29895       2
   29880   29886       2   29877   29886       2   29877   29889       2   29871
   29880       2   29868   29877       2   29856   29868       2   29853   29868
       2   29853   29871       2   29835   29856       2   29832   29847       2
   29832   29853       2   29829   29847       2   29826   29838       2   29820
   29838       2   29817   29832       2   29817   29835       2   29814   29826
       2   29814   29829       2   29811   29820       2   29808   29811       2
   29808   29814       2   29808   29817       2   30006   30012       2   30003
   30012       2   29997   30006       2   29994   30003       2   29988   29994
       2   29985   29994       2   29985   29997       2   29979   29988       2
   29976   29985       2   29964   29976       2   29961   29976       2   29961
   29979       2   29943   29964       2   29940   29955       2   29940   29961
       2   29937   29955       2   29934   29946       2   29928   29946       2
   29925   29940       2   29925   29943       2   29922   29934       2   29922
   29937       2   29919   29928       2   29916   29919       2   29916   29922
       2   29916   29925       2   30114   30120       2   30111   30120       2
   30105   30114       2   30102   30111       2   30096   30102       2   30093
   30102       2   30093   30105       2   30087   30096       2   30084   30093
       2   30072   30084       2   30069   30084       2   30069   30087       2
   30051   30072       2   30048   30063       2   30048   30069       2   30045
   30063       2   30042   30054       2   30036   30054       2   30033   30048
       2   30033   30051       2   30030   30042       2   30030   30045       2
   30027   30036       2   30024   30027       2   30024   30030       2   30024
   30033       2   30222   30228       2   30219   30228       2   30213   30222
       2   30210   30219       2   30204   30210       2   30201   30210       2
   30201   30213       2   30195   30204       2   30192   30201       2   30180
   30192       2   30177   30192       2   30177   30195       2   30159   30180
       2   30156   30171       2   30156   30177       2   30153   30171       2
   30150   30162       2   30144   30162       2   30141   30156       2   30141
   30159       2   30138   30150       2   30138   30153       2   30135   30144
       2   30132   30135       2   30132   30138       2   30132   30141       2
   30330   30336       2   30327   30336       2   30321   30330       2   30318
   30327       2   30312   30318       2   30309   30318       2   30309   30321
       2   30303   30312       2   30300   30309       2   30288   30300       2
   30285   30300       2   30285   30303       2   30267   30288       2   30264
   30279       2   30264   30285       2   30261   30279       2   30258   30270
       2   30252   30270       2   30249   30264       2   30249   30267       2
   30246   30258       2   30246   30261       2   30243   30252       2   30240
   30243       2   30240   30246       2   30240   30249       2   30438   30444
       2   30435   30444       2   30429   30438       2   30426   30435       2
   30420   30426       2   30417   30426       2   30417   30429       2   30411
   30420       2   30408   30417       2   30396   30408       2   30393   30408
       2   30393   30411       2   30375   30396       2   30372   30387       2
   30372   30393       2   30369   30387       2   30366   30378       2   30360
   30378       2   30357   30372       2   30357   30375       2   30354   30366
       2   30354   30369       2   30351   30360       2   30348   30351       2
   30348   30354       2   30348   30357       2   30546   30552       2   30543
   30552       2   30537   30546       2   30534   30543       2   30528   30534
       2   30525   30534       2   30525   30537       2   30519   30528       2
   30516   30525       2   30504   30516       2   30501   30516       2   30501
   30519       2   30483   30504       2   30480   30495       2   30480   30501
       2   30477   30495       2   30474   30486       2   30468   30486       2
   30465   30480       2   30465   30483       2   30462   30474       2   30462
   30477       2   30459   30468       2   30456   30459       2   30456   30462
       2   30456   30465       2   30654   30660       2   30651   30660       2
   30645   30654       2   30642   30651       2   30636   30642       2   30633
   30642       2   30633   30645       2   30627   30636       2   30624   30633
       2   30612   30624       2   30609   30624       2   30609   30627       2
   30591   30612       2   30588   30603       2   30588   30609       2   30585
   30603       2   30582   30594       2   30576   30594       2   30573   30588
       2   30573   30591       2   30570   30582       2   30570   30585       2
   30567   30576       2   30564   30567       2   30564   30570       2   30564
   30573       2   30762   30768       2   30759   30768       2   30753   30762
       2   30750   30759       2   30744   30750       2   30741   30750       2
   30741   30753       2   30735   30744       2   30732   30741       2   30720
   30732       2   30717   30732       2   30717   30735       2   30699   30720
       2   30696   30711       2   30696   30717       2   30693   30711       2
   30690   30702       2   30684   30702       2   30681   30696       2   30681
   30699       2   30678   30690       2   30678   30693       2   30675   30684
       2   30672   30675       2   30672   30678       2   30672   30681       2
   30870   30876       2   30867   30876       2   30861   30870       2   30858
   30867       2   30852   30858       2   30849   30858       2   30849   30861
       2   30843   30852       2   30840   30849       2   30828   30840       2
   30825   30840       2   30825   30843       2   30807   30828       2   30804
   30819       2   30804   30825       2   30801   30819       2   30798   30810
       2   30792   30810       2   30789   30804       2   30789   30807       2
   30786   30798       2   30786   30801       2   30783   30792       2   30780
   30783       2   30780   30786       2   30780   30789       2   30978   30984
       2   30975   30984       2   30969   30978       2   30966   30975       2
   30960   30966       2   30957   30966       2   30957   30969       2   30951
   30960       2   30948   30957       2   30936   30948       2   30933   30948
       2   30933   30951       2   30915   30936       2   30912   30927       2
   30912   30933       2   30909   30927       2   30906   30918       2   30900
   30918       2   30897   30912       2   30897   30915       2   30894   30906
       2   30894   30909       2   30891   30900       2   30888   30891       2
   30888   30894       2   30888   30897       2   31086   31092       2   31083
   31092       2   31077   31086       2   31074   31083       2   31068   31074
       2   31065   31074       2   31065   31077       2   31059   31068       2
   31056   31065       2   31044   31056       2   31041   31056       2   31041
   31059       2   31023   31044       2   31020   31035       2   31020   31041
       2   31017   31035       2   31014   31026       2   31008   31026       2
   31005   31020       2   31005   31023       2   31002   31014       2   31002
   31017       2   30999   31008       2   30996   30999       2   30996   31002
       2   30996   31005       2   31194   31200       2   31191   31200       2
   31185   31194       2   31182   31191       2   31176   31182       2   31173
   31182       2   31173   31185       2   31167   31176       2   31164   31173
       2   31152   31164       2   31149   31164       2   31149   31167       2
   31131   31152       2   31128   31143       2   31128   31149       2   31125
   31143       2   31122   31134       2   31116   31134       2   31113   31128
       2   31113   31131       2   31110   31122       2   31110   31125       2
   31107   31116       2   31104   31107       2   31104   31110       2   31104
   31113       2   31302   31308       2   31299   31308       2   31293   31302
       2   31290   31299       2   31284   31290       2   31281   31290       2
   31281   31293       2   31275   31284       2   31272   31281       2   31260
   31272       2   31257   31272       2   31257   31275       2   31239   31260
       2   31236   31251       2   31236   31257       2   31233   31251       2
   31230   31242       2   31224   31242       2   31221   31236       2   31221
   31239       2   31218   31230       2   31218   31233       2   31215   31224
       2   31212   31215       2   31212   31218       2   31212   31221       2
   31410   31416       2   31407   31416       2   31401   31410       2   31398
   31407       2   31392   31398       2   31389   31398       2   31389   31401
       2   31383   31392       2   31380   31389       2   31368   31380       2
   31365   31380       2   31365   31383       2   31347   31368       2   31344
   31359       2   31344   31365       2   31341   31359       2   31338   31350
       2   31332   31350       2   31329   31344       2   31329   31347       2
   31326   31338       2   31326   31341       2   31323   31332       2   31320
   31323       2   31320   31326       2   31320   31329       2   31518   31524
       2   31515   31524       2   31509   31518       2   31506   31515       2
   31500   31506       2   31497   31506       2   31497   31509       2   31491
   31500       2   31488   31497       2   31476   31488       2   31473   31488
       2   31473   31491       2   31455   31476       2   31452   31467       2
   31452   31473       2   31449   31467       2   31446   31458       2   31440
   31458       2   31437   31452       2   31437   31455       2   31434   31446
       2   31434   31449       2   31431   31440       2   31428   31431       2
   31428   31434       2   31428   31437       2   31626   31632       2   31623
   31632       2   31617   31626       2   31614   31623       2   31608   31614
       2   31605   31614       2   31605   31617       2   31599   31608       2
   31596   31605       2   31584   31596       2   31581   31596       2   31581
   31599       2   31563   31584       2   31560   31575       2   31560   31581
       2   31557   31575       2   31554   31566       2   31548   31566       2
   31545   31560       2   31545   31563       2   31542   31554       2   31542
   31557       2   31539   31548       2   31536   31539       2   31536   31542
       2   31536   31545       2   31734   31740       2   31731   31740       2
   31725   31734       2   31722   31731       2   31716   31722       2   31713
   31722       2   31713   31725       2   31707   31716       2   31704   31713
       2   31692   31704       2   31689   31704       2   31689   31707       2
   31671   31692       2   31668   31683       2   31668   31689       2   31665
   31683       2   31662   31674       2   31656   31674       2   31653   31668
       2   31653   31671       2   31650   31662       2   31650   31665       2
   31647   31656       2   31644   31647       2   31644   31650       2   31644
   31653       2   31842   31848       2   31839   31848       2   31833   31842
       2   31830   31839       2   31824   31830       2   31821   31830       2
   31821   31833       2   31815   31824       2   31812   31821       2   31800
   31812       2   31797   31812       2   31797   31815       2   31779   31800
       2   31776   31791       2   31776   31797       2   31773   31791       2
   31770   31782       2   31764   31782       2   31761   31776       2   31761
   31779       2   31758   31770       2   31758   31773       2   31755   31764
       2   31752   31755       2   31752   31758       2   31752   31761       2
   31950   31956       2   31947   31956       2   31941   31950       2   31938
   31947       2   31932   31938       2   31929   31938       2   31929   31941
       2   31923   31932       2   31920   31929       2   31908   31920       2
   31905   31920       2   31905   31923       2   31887   31908       2   31884
   31899       2   31884   31905       2   31881   31899       2   31878   31890
       2   31872   31890       2   31869   31884       2   31869   31887       2
   31866   31878       2   31866   31881       2   31863   31872       2   31860
   31863       2   31860   31866       2   31860   31869       2   32058   32064
       2   32055   32064       2   32049   32058       2   32046   32055       2
   32040   32046       2   32037   32046       2   32037   32049       2   32031
   32040       2   32028   32037       2   32016   32028       2   32013   32028
       2   32013   32031       2   31995   32016       2   31992   32007       2
   31992   32013       2   31989   32007       2   31986   31998       2   31980
   31998       2   31977   31992       2   31977   31995       2   31974   31986
       2   31974   31989       2   31971   31980       2   31968   31971       2
   31968   31974       2   31968   31977       2   32166   32172       2   32163
   32172       2   32157   32166       2   32154   32163       2   32148   32154
       2   32145   32154       2   32145   32157       2   32139   32148       2
   32136   32145       2   32124   32136       2   32121   32136       2   32121
   32139       2   32103   32124       2   32100   32115       2   32100   32121
       2   32097   32115       2   32094   32106       2   32088   32106       2
   32085   32100       2   32085   32103       2   32082   32094       2   32082
   32097       2   32079   32088       2   32076   32079       2   32076   32082
       2   32076   32085       2   32274   32280       2   32271   32280       2
   32265   32274       2   32262   32271       2   32256   32262       2   32253
   32262       2   32253   32265       2   32247   32256       2   32244   32253
       2   32232   32244       2   32229   32244       2   32229   32247       2
   32211   32232       2   32208   32223       2   32208   32229       2   32205
   32223       2   32202   32214       2   32196   32214       2   32193   32208
       2   32193   32211       2   32190   32202       2   32190   32205       2
   32187   32196       2   32184   32187       2   32184   32190       2   32184
   32193       2   32382   32388       2   32379   32388       2   32373   32382
       2   32370   32379       2   32364   32370       2   32361   32370       2
   32361   32373       2   32355   32364       2   32352   32361       2   32340
   32352       2   32337   32352       2   32337   32355       2   32319   32340
       2   32316   32331       2   32316   32337       2   32313   32331       2
   32310   32322       2   32304   32322       2   32301   32316       2   32301
   32319       2   32298   32310       2   32298   32313       2   32295   32304
       2   32292   32295       2   32292   32298       2   32292   32301       2
   32490   32496       2   32487   32496       2   32481   32490       2   32478
   32487       2   32472   32478       2   32469   32478       2   32469   32481
       2   32463   32472       2   32460   32469       2   32448   32460       2
   32445   32460       2   32445   32463       2   32427   32448       2   32424
   32439       2   32424   32445       2   32421   32439       2   32418   32430
       2   32412   32430       2   32409   32424       2   32409   32427       2
   32406   32418       2   32406   32421       2   32403   32412       2   32400
   32403       2   32400   32406       2   32400   32409       2   32598   32604
       2   32595   32604       2   32589   32598       2   32586   32595       2
   32580   32586       2   32577   32586       2   32577   32589       2   32571
   32580       2   32568   32577       2   32556   32568       2   32553   32568
       2   32553   32571       2   32535   32556       2   32532   32547       2
   32532   32553       2   32529   32547       2   32526   32538       2   32520
   32538       2   32517   32532       2   32517   32535       2   32514   32526
       2   32514   32529       2   32511   32520       2   32508   32511       2
   32508   32514       2   32508   32517       2   32706   32712       2   32703
   32712       2   32697   32706       2   32694   32703       2   32688   32694
       2   32685   32694       2   32685   32697       2   32679   32688       2
   32676   32685       2   32664   32676       2   32661   32676       2   32661
   32679       2   32643   32664       2   32640   32655       2   32640   32661
       2   32637   32655       2   32634   32646       2   32628   32646       2
   32625   32640       2   32625   32643       2   32622   32634       2   32622
   32637       2   32619   32628       2   32616   32619       2   32616   32622
       2   32616   32625       2   32814   32820       2   32811   32820       2
   32805   32814       2   32802   32811       2   32796   32802       2   32793
   32802       2   32793   32805       2   32787   32796       2   32784   32793
       2   32772   32784       2   32769   32784       2   32769   32787       2
   32751   32772       2   32748   32763       2   32748   32769       2   32745
   32763       2   32742   32754       2   32736   32754       2   32733   32748
       2   32733   32751       2   32730   32742       2   32730   32745       2
   32727   32736       2   32724   32727       2   32724   32730       2   32724
   32733       2   32922   32928       2   32919   32928       2   32913   32922
       2   32910   32919       2   32904   32910       2   32901   32910       2
   32901   32913       2   32895   32904       2   32892   32901       2   32880
   32892       2   32877   32892       2   32877   32895       2   32859   32880
       2   32856   32871       2   32856   32877       2   32853   32871       2
   32850   32862       2   32844   32862       2   32841   32856       2   32841
   32859       2   32838   32850       2   32838   32853       2   32835   32844
       2   32832   32835       2   32832   32838       2   32832   32841       2
   33030   33036       2   33027   33036       2   33021   33030       2   33018
   33027       2   33012   33018       2   33009   33018       2   33009   33021
       2   33003   33012       2   33000   33009       2   32988   33000       2
   32985   33000       2   32985   33003       2   32967   32988       2   32964
   32979       2   32964   32985       2   32961   32979       2   32958   32970
       2   32952   32970       2   32949   32964       2   32949   32967       2
   32946   32958       2   32946   32961       2   32943   32952       2   32940
   32943       2   32940   32946       2   32940   32949       2   33138   33144
       2   33135   33144       2   33129   33138       2   33126   33135       2
   33120   33126       2   33117   33126       2   33117   33129       2   33111
   33120       2   33108   33117       2   33096   33108       2   33093   33108
       2   33093   33111       2   33075   33096       2   33072   33087       2
   33072   33093       2   33069   33087       2   33066   33078       2   33060
   33078       2   33057   33072       2   33057   33075       2   33054   33066
       2   33054   33069       2   33051   33060       2   33048   33051       2
   33048   33054       2   33048   33057       2   33246   33252       2   33243
   33252       2   33237   33246       2   33234   33243       2   33228   33234
       2   33225   33234       2   33225   33237       2   33219   33228       2
   33216   33225       2   33204   33216       2   33201   33216       2   33201
   33219       2   33183   33204       2   33180   33195       2   33180   33201
       2   33177   33195       2   33174   33186       2   33168   33186       2
   33165   33180       2   33165   33183       2   33162   33174       2   33162
   33177       2   33159   33168       2   33156   33159       2   33156   33162
       2   33156   33165       2   33354   33360       2   33351   33360       2
   33345   33354       2   33342   33351       2   33336   33342       2   33333
   33342       2   33333   33345       2   33327   33336       2   33324   33333
       2   33312   33324       2   33309   33324       2   33309   33327       2
   33291   33312       2   33288   33303       2   33288   33309       2   33285
   33303       2   33282   33294       2   33276   33294       2   33273   33288
       2   33273   33291       2   33270   33282       2   33270   33285       2
   33267   33276       2   33264   33267       2   33264   33270       2   33264
   33273       2   33462   33468       2   33459   33468       2   33453   33462
       2   33450   33459       2   33444   33450       2   33441   33450       2
   33441   33453       2   33435   33444       2   33432   33441       2   33420
   33432       2   33417   33432       2   33417   33435       2   33399   33420
       2   33396   33411       2   33396   33417       2   33393   33411       2
   33390   33402       2   33384   33402       2   33381   33396       2   33381
   33399       2   33378   33390       2   33378   33393       2   33375   33384
       2   33372   33375       2   33372   33378       2   33372   33381       2
   33570   33576       2   33567   33576       2   33561   33570       2   33558
   33567       2   33552   33558       2   33549   33558       2   33549   33561
       2   33543   33552       2   33540   33549       2   33528   33540       2
   33525   33540       2   33525   33543       2   33507   33528       2   33504
   33519       2   33504   33525       2   33501   33519       2   33498   33510
       2   33492   33510       2   33489   33504       2   33489   33507       2
   33486   33498       2   33486   33501       2   33483   33492       2   33480
   33483       2   33480   33486       2   33480   33489       2   33678   33684
       2   33675   33684       2   33669   33678       2   33666   33675       2
   33660   33666       2   33657   33666       2   33657   33669       2   33651
   33660       2   33648   33657       2   33636   33648       2   33633   33648
       2   33633   33651       2   33615   33636       2   33612   33627       2
   33612   33633       2   33609   33627       2   33606   33618       2   33600
   33618       2   33597   33612       2   33597   33615       2   33594   33606
       2   33594   33609       2   33591   33600       2   33588   33591       2
   33588   33594       2   33588   33597       2   33786   33792       2   33783
   33792       2   33777   33786       2   33774   33783       2   33768   33774
       2   33765   33774       2   33765   33777       2   33759   33768       2
   33756   33765       2   33744   33756       2   33741   33756       2   33741
   33759       2   33723   33744       2   33720   33735       2   33720   33741
       2   33717   33735       2   33714   33726       2   33708   33726       2
   33705   33720       2   33705   33723       2   33702   33714       2   33702
   33717       2   33699   33708       2   33696   33699       2   33696   33702
       2   33696   33705       2   33894   33900       2   33891   33900       2
   33885   33894       2   33882   33891       2   33876   33882       2   33873
   33882       2   33873   33885       2   33867   33876       2   33864   33873
       2   33852   33864       2   33849   33864       2   33849   33867       2
   33831   33852       2   33828   33843       2   33828   33849       2   33825
   33843       2   33822   33834       2   33816   33834       2   33813   33828
       2   33813   33831       2   33810   33822       2   33810   33825       2
   33807   33816       2   33804   33807       2   33804   33810       2   33804
   33813       2   34002   34008       2   33999   34008       2   33993   34002
       2   33990   33999       2   33984   33990       2   33981   33990       2
   33981   33993       2   33975   33984       2   33972   33981       2   33960
   33972       2   33957   33972       2   33957   33975       2   33939   33960
       2   33936   33951       2   33936   33957       2   33933   33951       2
   33930   33942       2   33924   33942       2   33921   33936       2   33921
   33939       2   33918   33930       2   33918   33933       2   33915   33924
       2   33912   33915       2   33912   33918       2   33912   33921       2
   34110   34116       2   34107   34116       2   34101   34110       2   34098
   34107       2   34092   34098       2   34089   34098       2   34089   34101
       2   34083   34092       2   34080   34089       2   34068   34080       2
   34065   34080       2   34065   34083       2   34047   34068       2   34044
   34059       2   34044   34065       2   34041   34059       2   34038   34050
       2   34032   34050       2   34029   34044       2   34029   34047       2
   34026   34038       2   34026   34041       2   34023   34032       2   34020
   34023       2   34020   34026       2   34020   34029       2   34218   34224
       2   34215   34224       2   34209   34218       2   34206   34215       2
   34200   34206       2   34197   34206       2   34197   34209       2   34191
   34200       2   34188   34197       2   34176   34188       2   34173   34188
       2   34173   34191       2   34155   34176       2   34152   34167       2
   34152   34173       2   34149   34167       2   34146   34158       2   34140
   34158       2   34137   34152       2   34137   34155       2   34134   34146
       2   34134   34149       2   34131   34140       2   34128   34131       2
   34128   34134       2   34128   34137       2   34326   34332       2   34323
   34332       2   34317   34326       2   34314   34323       2   34308   34314
       2   34305   34314       2   34305   34317       2   34299   34308       2
   34296   34305       2   34284   34296       2   34281   34296       2   34281
   34299       2   34263   34284       2   34260   34275       2   34260   34281
       2   34257   34275       2   34254   34266       2   34248   34266       2
   34245   34260       2   34245   34263       2   34242   34254       2   34242
   34257       2   34239   34248       2   34236   34239       2   34236   34242
       2   34236   34245       2   34434   34440       2   34431   34440       2
   34425   34434       2   34422   34431       2   34416   34422       2   34413
   34422       2   34413   34425       2   34407   34416       2   34404   34413
       2   34392   34404       2   34389   34404       2   34389   34407       2
   34371   34392       2   34368   34383       2   34368   34389       2   34365
   34383       2   34362   34374       2   34356   34374       2   34353   34368
       2   34353   34371       2   34350   34362       2   34350   34365       2
   34347   34356       2   34344   34347       2   34344   34350       2   34344
   34353       2   34542   34548       2   34539   34548       2   34533   34542
       2   34530   34539       2   34524   34530       2   34521   34530       2
   34521   34533       2   34515   34524       2   34512   34521       2   34500
   34512       2   34497   34512       2   34497   34515       2   34479   34500
       2   34476   34491       2   34476   34497       2   34473   34491       2
   34470   34482       2   34464   34482       2   34461   34476       2   34461
   34479       2   34458   34470       2   34458   34473       2   34455   34464
       2   34452   34455       2   34452   34458       2   34452   34461       2
   34650   34656       2   34647   34656       2   34641   34650       2   34638
   34647       2   34632   34638       2   34629   34638       2   34629   34641
       2   34623   34632       2   34620   34629       2   34608   34620       2
   34605   34620       2   34605   34623       2   34587   34608       2   34584
   34599       2   34584   34605       2   34581   34599       2   34578   34590
       2   34572   34590       2   34569   34584       2   34569   34587       2
   34566   34578       2   34566   34581       2   34563   34572       2   34560
   34563       2   34560   34566       2   34560   34569       2   34758   34764
       2   34755   34764       2   34749   34758       2   34746   34755       2
   34740   34746       2   34737   34746       2   34737   34749       2   34731
   34740       2   34728   34737       2   34716   34728       2   34713   34728
       2   34713   34731       2   34695   34716       2   34692   34707       2
   34692   34713       2   34689   34707       2   34686   34698       2   34680
   34698       2   34677   34692       2   34677   34695       2   34674   34686
       2   34674   34689       2   34671   34680       2   34668   34671       2
   34668   34674       2   34668   34677       2   34866   34872       2   34863
   34872       2   34857   34866       2   34854   34863       2   34848   34854
       2   34845   34854       2   34845   34857       2   34839   34848       2
   34836   34845       2   34824   34836       2   34821   34836       2   34821
   34839       2   34803   34824       2   34800   34815       2   34800   34821
       2   34797   34815       2   34794   34806       2   34788   34806       2
   34785   34800       2   34785   34803       2   34782   34794       2   34782
   34797       2   34779   34788       2   34776   34779       2   34776   34782
       2   34776   34785       2   34974   34980       2   34971   34980       2
   34965   34974       2   34962   34971       2   34956   34962       2   34953
   34962       2   34953   34965       2   34947   34956       2   34944   34953
       2   34932   34944       2   34929   34944       2   34929   34947       2
   34911   34932       2   34908   34923       2   34908   34929       2   34905
   34923       2   34902   34914       2   34896   34914       2   34893   34908
       2   34893   34911       2   34890   34902       2   34890   34905       2
   34887   34896       2   34884   34887       2   34884   34890       2   34884
   34893       2   35082   35088       2   35079   35088       2   35073   35082
       2   35070   35079       2   35064   35070       2   35061   35070       2
   35061   35073       2   35055   35064       2   35052   35061       2   35040
   35052       2   35037   35052       2   35037   35055       2   35019   35040
       2   35016   35031       2   35016   35037       2   35013   35031       2
   35010   35022       2   35004   35022       2   35001   35016       2   35001
   35019       2   34998   35010       2   34998   35013       2   34995   35004
       2   34992   34995       2   34992   34998       2   34992   35001       2
   35190   35196       2   35187   35196       2   35181   35190       2   35178
   35187       2   35172   35178       2   35169   35178       2   35169   35181
       2   35163   35172       2   35160   35169       2   35148   35160       2
   35145   35160       2   35145   35163       2   35127   35148       2   35124
   35139       2   35124   35145       2   35121   35139       2   35118   35130
       2   35112   35130       2   35109   35124       2   35109   35127       2
   35106   35118       2   35106   35121       2   35103   35112       2   35100
   35103       2   35100   35106       2   35100   35109       2   35298   35304
       2   35295   35304       2   35289   35298       2   35286   35295       2
   35280   35286       2   35277   35286       2   35277   35289       2   35271
   35280       2   35268   35277       2   35256   35268       2   35253   35268
       2   35253   35271       2   35235   35256       2   35232   35247       2
   35232   35253       2   35229   35247       2   35226   35238       2   35220
   35238       2   35217   35232       2   35217   35235       2   35214   35226
       2   35214   35229       2   35211   35220       2   35208   35211       2
   35208   35214       2   35208   35217       2   35406   35412       2   35403
   35412       2   35397   35406       2   35394   35403       2   35388   35394
       2   35385   35394       2   35385   35397       2   35379   35388       2
   35376   35385       2   35364   35376       2   35361   35376       2   35361
   35379       2   35343   35364       2   35340   35355       2   35340   35361
       2   35337   35355       2   35334   35346       2   35328   35346       2
   35325   35340       2   35325   35343       2   35322   35334       2   35322
   35337       2   35319   35328       2   35316   35319       2   35316   35322
       2   35316   35325       2   35514   35520       2   35511   35520       2
   35505   35514       2   35502   35511       2   35496   35502       2   35493
   35502       2   35493   35505       2   35487   35496       2   35484   35493
       2   35472   35484       2   35469   35484       2   35469   35487       2
   35451   35472       2   35448   35463       2   35448   35469       2   35445
   35463       2   35442   35454       2   35436   35454       2   35433   35448
       2   35433   35451       2   35430   35442       2   35430   35445       2
   35427   35436       2   35424   35427       2   35424   35430       2   35424
   35433       2   35622   35628       2   35619   35628       2   35613   35622
       2   35610   35619       2   35604   35610       2   35601   35610       2
   35601   35613       2   35595   35604       2   35592   35601       2   35580
   35592       2   35577   35592       2   35577   35595       2   35559   35580
       2   35556   35571       2   35556   35577       2   35553   35571       2
   35550   35562       2   35544   35562       2   35541   35556       2   35541
   35559       2   35538   35550       2   35538   35553       2   35535   35544
       2   35532   35535       2   35532   35538       2   35532   35541       2
   35730   35736       2   35727   35736       2   35721   35730       2   35718
   35727       2   35712   35718       2   35709   35718       2   35709   35721
       2   35703   35712       2   35700   35709       2   35688   35700       2
   35685   35700       2   35685   35703       2   35667   35688       2   35664
   35679       2   35664   35685       2   35661   35679       2   35658   35670
       2   35652   35670       2   35649   35664       2   35649   35667       2
   35646   35658       2   35646   35661       2   35643   35652       2   35640
   35643       2   35640   35646       2   35640   35649       2   35838   35844
       2   35835   35844       2   35829   35838       2   35826   35835       2
   35820   35826       2   35817   35826       2   35817   35829       2   35811
   35820       2   35808   35817       2   35796   35808       2   35793   35808
       2   35793   35811       2   35775   35796       2   35772   35787       2
   35772   35793       2   35769   35787       2   35766   35778       2   35760
   35778       2   35757   35772       2   35757   35775       2   35754   35766
       2   35754   35769       2   35751   35760       2   35748   35751       2
   35748   35754       2   35748   35757       2   35946   35952       2   35943
   35952       2   35937   35946       2   35934   35943       2   35928   35934
       2   35925   35934       2   35925   35937       2   35919   35928       2
   35916   35925       2   35904   35916       2   35901   35916       2   35901
   35919       2   35883   35904       2   35880   35895       2   35880   35901
       2   35877   35895       2   35874   35886       2   35868   35886       2
   35865   35880       2   35865   35883       2   35862   35874       2   35862
   35877       2   35859   35868       2   35856   35859       2   35856   35862
       2   35856   35865       2   36054   36060       2   36051   36060       2
   36045   36054       2   36042   36051       2   36036   36042       2   36033
   36042       2   36033   36045       2   36027   36036       2   36024   36033
       2   36012   36024       2   36009   36024       2   36009   36027       2
   35991   36012       2   35988   36003       2   35988   36009       2   35985
   36003       2   35982   35994       2   35976   35994       2   35973   35988
       2   35973   35991       2   35970   35982       2   35970   35985       2
   35967   35976       2   35964   35967       2   35964   35970       2   35964
   35973       2   36162   36168       2   36159   36168       2   36153   36162
       2   36150   36159       2   36144   36150       2   36141   36150       2
   36141   36153       2   36135   36144       2   36132   36141       2   36120
   36132       2   36117   36132       2   36117   36135       2   36099   36120
       2   36096   36111       2   36096   36117       2   36093   36111       2
   36090   36102       2   36084   36102       2   36081   36096       2   36081
   36099       2   36078   36090       2   36078   36093       2   36075   36084
       2   36072   36075       2   36072   36078       2   36072   36081       2
   36270   36276       2   36267   36276       2   36261   36270       2   36258
   36267       2   36252   36258       2   36249   36258       2   36249   36261
       2   36243   36252       2   36240   36249       2   36228   36240       2
   36225   36240       2   36225   36243       2   36207   36228       2   36204
   36219       2   36204   36225       2   36201   36219       2   36198   36210
       2   36192   36210       2   36189   36204       2   36189   36207       2
   36186   36198       2   36186   36201       2   36183   36192       2   36180
   36183       2   36180   36186       2   36180   36189       2   36378   36384
       2   36375   36384       2   36369   36378       2   36366   36375       2
   36360   36366       2   36357   36366       2   36357   36369       2   36351
   36360       2   36348   36357       2   36336   36348       2   36333   36348
       2   36333   36351       2   36315   36336       2   36312   36327       2
   36312   36333       2   36309   36327       2   36306   36318       2   36300
   36318       2   36297   36312       2   36297   36315       2   36294   36306
       2   36294   36309       2   36291   36300       2   36288   36291       2
   36288   36294       2   36288   36297       2   36486   36492       2   36483
   36492       2   36477   36486       2   36474   36483       2   36468   36474
       2   36465   36474       2   36465   36477       2   36459   36468       2
   36456   36465       2   36444   36456       2   36441   36456       2   36441
   36459       2   36423   36444       2   36420   36435       2   36420   36441
       2   36417   36435       2   36414   36426       2   36408   36426       2
   36405   36420       2   36405   36423       2   36402   36414       2   36402
   36417       2   36399   36408       2   36396   36399       2   36396   36402
       2   36396   36405       2   36594   36600       2   36591   36600       2
   36585   36594       2   36582   36591       2   36576   36582       2   36573
   36582       2   36573   36585       2   36567   36576       2   36564   36573
       2   36552   36564       2   36549   36564       2   36549   36567       2
   36531   36552       2   36528   36543       2   36528   36549       2   36525
   36543       2   36522   36534       2   36516   36534       2   36513   36528
       2   36513   36531       2   36510   36522       2   36510   36525       2
   36507   36516       2   36504   36507       2   36504   36510       2   36504
   36513       2   36702   36708       2   36699   36708       2   36693   36702
       2   36690   36699       2   36684   36690       2   36681   36690       2
   36681   36693       2   36675   36684       2   36672   36681       2   36660
   36672       2   36657   36672       2   36657   36675       2   36639   36660
       2   36636   36651       2   36636   36657       2   36633   36651       2
   36630   36642       2   36624   36642       2   36621   36636       2   36621
   36639       2   36618   36630       2   36618   36633       2   36615   36624
       2   36612   36615       2   36612   36618       2   36612   36621       2
   36810   36816       2   36807   36816       2   36801   36810       2   36798
   36807       2   36792   36798       2   36789   36798       2   36789   36801
       2   36783   36792       2   36780   36789       2   36768   36780       2
   36765   36780       2   36765   36783       2   36747   36768       2   36744
   36759       2   36744   36765       2   36741   36759       2   36738   36750
       2   36732   36750       2   36729   36744       2   36729   36747       2
   36726   36738       2   36726   36741       2   36723   36732       2   36720
   36723       2   36720   36726       2   36720   36729       2   36918   36924
       2   36915   36924       2   36909   36918       2   36906   36915       2
   36900   36906       2   36897   36906       2   36897   36909       2   36891
   36900       2   36888   36897       2   36876   36888       2   36873   36888
       2   36873   36891       2   36855   36876       2   36852   36867       2
   36852   36873       2   36849   36867       2   36846   36858       2   36840
   36858       2   36837   36852       2   36837   36855       2   36834   36846
       2   36834   36849       2   36831   36840       2   36828   36831       2
   36828   36834       2   36828   36837       2   37026   37032       2   37023
   37032       2   37017   37026       2   37014   37023       2   37008   37014
       2   37005   37014       2   37005   37017       2   36999   37008       2
   36996   37005       2   36984   36996       2   36981   36996       2   36981
   36999       2   36963   36984       2   36960   36975       2   36960   36981
       2   36957   36975       2   36954   36966       2   36948   36966       2
   36945   36960       2   36945   36963       2   36942   36954       2   36942
   36957       2   36939   36948       2   36936   36939       2   36936   36942
       2   36936   36945       2   37134   37140       2   37131   37140       2
   37125   37134       2   37122   37131       2   37116   37122       2   37113
   37122       2   37113   37125       2   37107   37116       2   37104   37113
       2   37092   37104       2   37089   37104       2   37089   37107       2
   37071   37092       2   37068   37083       2   37068   37089       2   37065
   37083       2   37062   37074       2   37056   37074       2   37053   37068
       2   37053   37071       2   37050   37062       2   37050   37065       2
   37047   37056       2   37044   37047       2   37044   37050       2   37044
   37053       2   37242   37248       2   37239   37248       2   37233   37242
       2   37230   37239       2   37224   37230       2   37221   37230       2
   37221   37233       2   37215   37224       2   37212   37221       2   37200
   37212       2   37197   37212       2   37197   37215       2   37179   37200
       2   37176   37191       2   37176   37197       2   37173   37191       2
   37170   37182       2   37164   37182       2   37161   37176       2   37161
   37179       2   37158   37170       2   37158   37173       2   37155   37164
       2   37152   37155       2   37152   37158       2   37152   37161       2
   37350   37356       2   37347   37356       2   37341   37350       2   37338
   37347       2   37332   37338       2   37329   37338       2   37329   37341
       2   37323   37332       2   37320   37329       2   37308   37320       2
   37305   37320       2   37305   37323       2   37287   37308       2   37284
   37299       2   37284   37305       2   37281   37299       2   37278   37290
       2   37272   37290       2   37269   37284       2   37269   37287       2
   37266   37278       2   37266   37281       2   37263   37272       2   37260
   37263       2   37260   37266       2   37260   37269       2   37458   37464
       2   37455   37464       2   37449   37458       2   37446   37455       2
   37440   37446       2   37437   37446       2   37437   37449       2   37431
   37440       2   37428   37437       2   37416   37428       2   37413   37428
       2   37413   37431       2   37395   37416       2   37392   37407       2
   37392   37413       2   37389   37407       2   37386   37398       2   37380
   37398       2   37377   37392       2   37377   37395       2   37374   37386
       2   37374   37389       2   37371   37380       2   37368   37371       2
   37368   37374       2   37368   37377       2   37566   37572       2   37563
   37572       2   37557   37566       2   37554   37563       2   37548   37554
       2   37545   37554       2   37545   37557       2   37539   37548       2
   37536   37545       2   37524   37536       2   37521   37536       2   37521
   37539       2   37503   37524       2   37500   37515       2   37500   37521
       2   37497   37515       2   37494   37506       2   37488   37506       2
   37485   37500       2   37485   37503       2   37482   37494       2   37482
   37497       2   37479   37488       2   37476   37479       2   37476   37482
       2   37476   37485       2   37674   37680       2   37671   37680       2
   37665   37674       2   37662   37671       2   37656   37662       2   37653
   37662       2   37653   37665       2   37647   37656       2   37644   37653
       2   37632   37644       2   37629   37644       2   37629   37647       2
   37611   37632       2   37608   37623       2   37608   37629       2   37605
   37623       2   37602   37614       2   37596   37614       2   37593   37608
       2   37593   37611       2   37590   37602       2   37590   37605       2
   37587   37596       2   37584   37587       2   37584   37590       2   37584
   37593       2   37782   37788       2   37779   37788       2   37773   37782
       2   37770   37779       2   37764   37770       2   37761   37770       2
   37761   37773       2   37755   37764       2   37752   37761       2   37740
   37752       2   37737   37752       2   37737   37755       2   37719   37740
       2   37716   37731       2   37716   37737       2   37713   37731       2
   37710   37722       2   37704   37722       2   37701   37716       2   37701
   37719       2   37698   37710       2   37698   37713       2   37695   37704
       2   37692   37695       2   37692   37698       2   37692   37701       2
   37890   37896       2   37887   37896       2   37881   37890       2   37878
   37887       2   37872   37878       2   37869   37878       2   37869   37881
       2   37863   37872       2   37860   37869       2   37848   37860       2
   37845   37860       2   37845   37863       2   37827   37848       2   37824
   37839       2   37824   37845       2   37821   37839       2   37818   37830
       2   37812   37830       2   37809   37824       2   37809   37827       2
   37806   37818       2   37806   37821       2   37803   37812       2   37800
   37803       2   37800   37806       2   37800   37809       2   37998   38004
       2   37995   38004       2   37989   37998       2   37986   37995       2
   37980   37986       2   37977   37986       2   37977   37989       2   37971
   37980       2   37968   37977       2   37956   37968       2   37953   37968
       2   37953   37971       2   37935   37956       2   37932   37947       2
   37932   37953       2   37929   37947       2   37926   37938       2   37920
   37938       2   37917   37932       2   37917   37935       2   37914   37926
       2   37914   37929       2   37911   37920       2   37908   37911       2
   37908   37914       2   37908   37917       2   38106   38112       2   38103
   38112       2   38097   38106       2   38094   38103       2   38088   38094
       2   38085   38094       2   38085   38097       2   38079   38088       2
   38076   38085       2   38064   38076       2   38061   38076       2   38061
   38079       2   38043   38064       2   38040   38055       2   38040   38061
       2   38037   38055       2   38034   38046       2   38028   38046       2
   38025   38040       2   38025   38043       2   38022   38034       2   38022
   38037       2   38019   38028       2   38016   38019       2   38016   38022
       2   38016   38025       2   38214   38220       2   38211   38220       2
   38205   38214       2   38202   38211       2   38196   38202       2   38193
   38202       2   38193   38205       2   38187   38196       2   38184   38193
       2   38172   38184       2   38169   38184       2   38169   38187       2
   38151   38172       2   38148   38163       2   38148   38169       2   38145
   38163       2   38142   38154       2   38136   38154       2   38133   38148
       2   38133   38151       2   38130   38142       2   38130   38145       2
   38127   38136       2   38124   38127       2   38124   38130       2   38124
   38133       2   38322   38328       2   38319   38328       2   38313   38322
       2   38310   38319       2   38304   38310       2   38301   38310       2
   38301   38313       2   38295   38304       2   38292   38301       2   38280
   38292       2   38277   38292       2   38277   38295       2   38259   38280
       2   38256   38271       2   38256   38277       2   38253   38271       2
   38250   38262       2   38244   38262       2   38241   38256       2   38241
   38259       2   38238   38250       2   38238   38253       2   38235   38244
       2   38232   38235       2   38232   38238       2   38232   38241       2
   38430   38436       2   38427   38436       2   38421   38430       2   38418
   38427       2   38412   38418       2   38409   38418       2   38409   38421
       2   38403   38412       2   38400   38409       2   38388   38400       2
   38385   38400       2   38385   38403       2   38367   38388       2   38364
   38379       2   38364   38385       2   38361   38379       2   38358   38370
       2   38352   38370       2   38349   38364       2   38349   38367       2
   38346   38358       2   38346   38361       2   38343   38352       2   38340
   38343       2   38340   38346       2   38340   38349       2   38538   38544
       2   38535   38544       2   38529   38538       2   38526   38535       2
   38520   38526       2   38517   38526       2   38517   38529       2   38511
   38520       2   38508   38517       2   38496   38508       2   38493   38508
       2   38493   38511       2   38475   38496       2   38472   38487       2
   38472   38493       2   38469   38487       2   38466   38478       2   38460
   38478       2   38457   38472       2   38457   38475       2   38454   38466
       2   38454   38469       2   38451   38460       2   38448   38451       2
   38448   38454       2   38448   38457       2   38646   38652       2   38643
   38652       2   38637   38646       2   38634   38643       2   38628   38634
       2   38625   38634       2   38625   38637       2   38619   38628       2
   38616   38625       2   38604   38616       2   38601   38616       2   38601
   38619       2   38583   38604       2   38580   38595       2   38580   38601
       2   38577   38595       2   38574   38586       2   38568   38586       2
   38565   38580       2   38565   38583       2   38562   38574       2   38562
   38577       2   38559   38568       2   38556   38559       2   38556   38562
       2   38556   38565       2   38754   38760       2   38751   38760       2
   38745   38754       2   38742   38751       2   38736   38742       2   38733
   38742       2   38733   38745       2   38727   38736       2   38724   38733
       2   38712   38724       2   38709   38724       2   38709   38727       2
   38691   38712       2   38688   38703       2   38688   38709       2   38685
   38703       2   38682   38694       2   38676   38694       2   38673   38688
       2   38673   38691       2   38670   38682       2   38670   38685       2
   38667   38676       2   38664   38667       2   38664   38670       2   38664
   38673       2   38862   38868       2   38859   38868       2   38853   38862
       2   38850   38859       2   38844   38850       2   38841   38850       2
   38841   38853       2   38835   38844       2   38832   38841       2   38820
   38832       2   38817   38832       2   38817   38835       2   38799   38820
       2   38796   38811       2   38796   38817       2   38793   38811       2
   38790   38802       2   38784   38802       2   38781   38796       2   38781
   38799       2   38778   38790       2   38778   38793       2   38775   38784
       2   38772   38775       2   38772   38778       2   38772   38781       2
   38970   38976       2   38967   38976       2   38961   38970       2   38958
   38967       2   38952   38958       2   38949   38958       2   38949   38961
       2   38943   38952       2   38940   38949       2   38928   38940       2
   38925   38940       2   38925   38943       2   38907   38928       2   38904
   38919       2   38904   38925       2   38901   38919       2   38898   38910
       2   38892   38910       2   38889   38904       2   38889   38907       2
   38886   38898       2   38886   38901       2   38883   38892       2   38880
   38883       2   38880   38886       2   38880   38889       2   39078   39084
       2   39075   39084       2   39069   39078       2   39066   39075       2
   39060   39066       2   39057   39066       2   39057   39069       2   39051
   39060       2   39048   39057       2   39036   39048       2   39033   39048
       2   39033   39051       2   39015   39036       2   39012   39027       2
   39012   39033       2   39009   39027       2   39006   39018       2   39000
   39018       2   38997   39012       2   38997   39015       2   38994   39006
       2   38994   39009       2   38991   39000       2   38988   38991       2
   38988   38994       2   38988   38997       2   39186   39192       2   39183
   39192       2   39177   39186       2   39174   39183       2   39168   39174
       2   39165   39174       2   39165   39177       2   39159   39168       2
   39156   39165       2   39144   39156       2   39141   39156       2   39141
   39159       2   39123   39144       2   39120   39135       2   39120   39141
       2   39117   39135       2   39114   39126       2   39108   39126       2
   39105   39120       2   39105   39123       2   39102   39114       2   39102
   39117       2   39099   39108       2   39096   39099       2   39096   39102
       2   39096   39105       2   39294   39300       2   39291   39300       2
   39285   39294       2   39282   39291       2   39276   39282       2   39273
   39282       2   39273   39285       2   39267   39276       2   39264   39273
       2   39252   39264       2   39249   39264       2   39249   39267       2
   39231   39252       2   39228   39243       2   39228   39249       2   39225
   39243       2   39222   39234       2   39216   39234       2   39213   39228
       2   39213   39231       2   39210   39222       2   39210   39225       2
   39207   39216       2   39204   39207       2   39204   39210       2   39204
   39213       2   39402   39408       2   39399   39408       2   39393   39402
       2   39390   39399       2   39384   39390       2   39381   39390       2
   39381   39393       2   39375   39384       2   39372   39381       2   39360
   39372       2   39357   39372       2   39357   39375       2   39339   39360
       2   39336   39351       2   39336   39357       2   39333   39351       2
   39330   39342       2   39324   39342       2   39321   39336       2   39321
   39339       2   39318   39330       2   39318   39333       2   39315   39324
       2   39312   39315       2   39312   39318       2   39312   39321       2
   39510   39516       2   39507   39516       2   39501   39510       2   39498
   39507       2   39492   39498       2   39489   39498       2   39489   39501
       2   39483   39492       2   39480   39489       2   39468   39480       2
   39465   39480       2   39465   39483       2   39447   39468       2   39444
   39459       2   39444   39465       2   39441   39459       2   39438   39450
       2   39432   39450       2   39429   39444       2   39429   39447       2
   39426   39438       2   39426   39441       2   39423   39432       2   39420
   39423       2   39420   39426       2   39420   39429       2   39618   39624
       2   39615   39624       2   39609   39618       2   39606   39615       2
   39600   39606       2   39597   39606       2   39597   39609       2   39591
   39600       2   39588   39597       2   39576   39588       2   39573   39588
       2   39573   39591       2   39555   39576       2   39552   39567       2
   39552   39573       2   39549   39567       2   39546   39558       2   39540
   39558       2   39537   39552       2   39537   39555       2   39534   39546
       2   39534   39549       2   39531   39540       2   39528   39531       2
   39528   39534       2   39528   39537       2   39726   39732       2   39723
   39732       2   39717   39726       2   39714   39723       2   39708   39714
       2   39705   39714       2   39705   39717       2   39699   39708       2
   39696   39705       2   39684   39696       2   39681   39696       2   39681
   39699       2   39663   39684       2   39660   39675       2   39660   39681
       2   39657   39675       2   39654   39666       2   39648   39666       2
   39645   39660       2   39645   39663       2   39642   39654       2   39642
   39657       2   39639   39648       2   39636   39639       2   39636   39642
       2   39636   39645       2   39834   39840       2   39831   39840       2
   39825   39834       2   39822   39831       2   39816   39822       2   39813
   39822       2   39813   39825       2   39807   39816       2   39804   39813
       2   39792   39804       2   39789   39804       2   39789   39807       2
   39771   39792       2   39768   39783       2   39768   39789       2   39765
   39783       2   39762   39774       2   39756   39774       2   39753   39768
       2   39753   39771       2   39750   39762       2   39750   39765       2
   39747   39756       2   39744   39747       2   39744   39750       2   39744
   39753       2   39942   39948       2   39939   39948       2   39933   39942
       2   39930   39939       2   39924   39930       2   39921   39930       2
   39921   39933       2   39915   39924       2   39912   39921       2   39900
   39912       2   39897   39912       2   39897   39915       2   39879   39900
       2   39876   39891       2   39876   39897       2   39873   39891       2
   39870   39882       2   39864   39882       2   39861   39876       2   39861
   39879       2   39858   39870       2   39858   39873       2   39855   39864
       2   39852   39855       2   39852   39858       2   39852   39861       2
   40050   40056       2   40047   40056       2   40041   40050       2   40038
   40047       2   40032   40038       2   40029   40038       2   40029   40041
       2   40023   40032       2   40020   40029       2   40008   40020       2
   40005   40020       2   40005   40023       2   39987   40008       2   39984
   39999       2   39984   40005       2   39981   39999       2   39978   39990
       2   39972   39990       2   39969   39984       2   39969   39987       2
   39966   39978       2   39966   39981       2   39963   39972       2   39960
   39963       2   39960   39966       2   39960   39969       2   40158   40164
       2   40155   40164       2   40149   40158       2   40146   40155       2
   40140   40146       2   40137   40146       2   40137   40149       2   40131
   40140       2   40128   40137       2   40116   40128       2   40113   40128
       2   40113   40131       2   40095   40116       2   40092   40107       2
   40092   40113       2   40089   40107       2   40086   40098       2   40080
   40098       2   40077   40092       2   40077   40095       2   40074   40086
       2   40074   40089       2   40071   40080       2   40068   40071       2
   40068   40074       2   40068   40077       2   40266   40272       2   40263
   40272       2   40257   40266       2   40254   40263       2   40248   40254
       2   40245   40254       2   40245   40257       2   40239   40248       2
   40236   40245       2   40224   40236       2   40221   40236       2   40221
   40239       2   40203   40224       2   40200   40215       2   40200   40221
       2   40197   40215       2   40194   40206       2   40188   40206       2
   40185   40200       2   40185   40203       2   40182   40194       2   40182
   40197       2   40179   40188       2   40176   40179       2   40176   40182
       2   40176   40185       2   40374   40380       2   40371   40380       2
   40365   40374       2   40362   40371       2   40356   40362       2   40353
   40362       2   40353   40365       2   40347   40356       2   40344   40353
       2   40332   40344       2   40329   40344       2   40329   40347       2
   40311   40332       2   40308   40323       2   40308   40329       2   40305
   40323       2   40302   40314       2   40296   40314       2   40293   40308
       2   40293   40311       2   40290   40302       2   40290   40305       2
   40287   40296       2   40284   40287       2   40284   40290       2   40284
   40293       2   40482   40488       2   40479   40488       2   40473   40482
       2   40470   40479       2   40464   40470       2   40461   40470       2
   40461   40473       2   40455   40464       2   40452   40461       2   40440
   40452       2   40437   40452       2   40437   40455       2   40419   40440
       2   40416   40431       2   40416   40437       2   40413   40431       2
   40410   40422       2   40404   40422       2   40401   40416       2   40401
   40419       2   40398   40410       2   40398   40413       2   40395   40404
       2   40392   40395       2   40392   40398       2   40392   40401       2
   40590   40596       2   40587   40596       2   40581   40590       2   40578
   40587       2   40572   40578       2   40569   40578       2   40569   40581
       2   40563   40572       2   40560   40569       2   40548   40560       2
   40545   40560       2   40545   40563       2   40527   40548       2   40524
   40539       2   40524   40545       2   40521   40539       2   40518   40530
       2   40512   40530       2   40509   40524       2   40509   40527       2
   40506   40518       2   40506   40521       2   40503   40512       2   40500
   40503       2   40500   40506       2   40500   40509       2   40698   40704
       2   40695   40704       2   40689   40698       2   40686   40695       2
   40680   40686       2   40677   40686       2   40677   40689       2   40671
   40680       2   40668   40677       2   40656   40668       2   40653   40668
       2   40653   40671       2   40635   40656       2   40632   40647       2
   40632   40653       2   40629   40647       2   40626   40638       2   40620
   40638       2   40617   40632       2   40617   40635       2   40614   40626
       2   40614   40629       2   40611   40620       2   40608   40611       2
   40608   40614       2   40608   40617       2   40806   40812       2   40803
   40812       2   40797   40806       2   40794   40803       2   40788   40794
       2   40785   40794       2   40785   40797       2   40779   40788       2
   40776   40785       2   40764   40776       2   40761   40776       2   40761
   40779       2   40743   40764       2   40740   40755       2   40740   40761
       2   40737   40755       2   40734   40746       2   40728   40746       2
   40725   40740       2   40725   40743       2   40722   40734       2   40722
   40737       2   40719   40728       2   40716   40719       2   40716   40722
       2   40716   40725       2   40914   40920       2   40911   40920       2
   40905   40914       2   40902   40911       2   40896   40902       2   40893
   40902       2   40893   40905       2   40887   40896       2   40884   40893
       2   40872   40884       2   40869   40884       2   40869   40887       2
   40851   40872       2   40848   40863       2   40848   40869       2   40845
   40863       2   40842   40854       2   40836   40854       2   40833   40848
       2   40833   40851       2   40830   40842       2   40830   40845       2
   40827   40836       2   40824   40827       2   40824   40830       2   40824
   40833       2   41022   41028       2   41019   41028       2   41013   41022
       2   41010   41019       2   41004   41010       2   41001   41010       2
   41001   41013       2   40995   41004       2   40992   41001       2   40980
   40992       2   40977   40992       2   40977   40995       2   40959   40980
       2   40956   40971       2   40956   40977       2   40953   40971       2
   40950   40962       2   40944   40962       2   40941   40956       2   40941
   40959       2   40938   40950       2   40938   40953       2   40935   40944
       2   40932   40935       2   40932   40938       2   40932   40941       2
   41130   41136       2   41127   41136       2   41121   41130       2   41118
   41127       2   41112   41118       2   41109   41118       2   41109   41121
       2   41103   41112       2   41100   41109       2   41088   41100       2
   41085   41100       2   41085   41103       2   41067   41088       2   41064
   41079       2   41064   41085       2   41061   41079       2   41058   41070
       2   41052   41070       2   41049   41064       2   41049   41067       2
   41046   41058       2   41046   41061       2   41043   41052       2   41040
   41043       2   41040   41046       2   41040   41049       2   41238   41244
       2   41235   41244       2   41229   41238       2   41226   41235       2
   41220   41226       2   41217   41226       2   41217   41229       2   41211
   41220       2   41208   41217       2   41196   41208       2   41193   41208
       2   41193   41211       2   41175   41196       2   41172   41187       2
   41172   41193       2   41169   41187       2   41166   41178       2   41160
   41178       2   41157   41172       2   41157   41175       2   41154   41166
       2   41154   41169       2   41151   41160       2   41148   41151       2
   41148   41154       2   41148   41157       2   41346   41352       2   41343
   41352       2   41337   41346       2   41334   41343       2   41328   41334
       2   41325   41334       2   41325   41337       2   41319   41328       2
   41316   41325       2   41304   41316       2   41301   41316       2   41301
   41319       2   41283   41304       2   41280   41295       2   41280   41301
       2   41277   41295       2   41274   41286       2   41268   41286       2
   41265   41280       2   41265   41283       2   41262   41274       2   41262
   41277       2   41259   41268       2   41256   41259       2   41256   41262
       2   41256   41265       2   41454   41460       2   41451   41460       2
   41445   41454       2   41442   41451       2   41436   41442       2   41433
   41442       2   41433   41445       2   41427   41436       2   41424   41433
       2   41412   41424       2   41409   41424       2   41409   41427       2
   41391   41412       2   41388   41403       2   41388   41409       2   41385
   41403       2   41382   41394       2   41376   41394       2   41373   41388
       2   41373   41391       2   41370   41382       2   41370   41385       2
   41367   41376       2   41364   41367       2   41364   41370       2   41364
   41373       2   41562   41568       2   41559   41568       2   41553   41562
       2   41550   41559       2   41544   41550       2   41541   41550       2
   41541   41553       2   41535   41544       2   41532   41541       2   41520
   41532       2   41517   41532       2   41517   41535       2   41499   41520
       2   41496   41511       2   41496   41517       2   41493   41511       2
   41490   41502       2   41484   41502       2   41481   41496       2   41481
   41499       2   41478   41490       2   41478   41493       2   41475   41484
       2   41472   41475       2   41472   41478       2   41472   41481       2
   41670   41676       2   41667   41676       2   41661   41670       2   41658
   41667       2   41652   41658       2   41649   41658       2   41649   41661
       2   41643   41652       2   41640   41649       2   41628   41640       2
   41625   41640       2   41625   41643       2   41607   41628       2   41604
   41619       2   41604   41625       2   41601   41619       2   41598   41610
       2   41592   41610       2   41589   41604       2   41589   41607       2
   41586   41598       2   41586   41601       2   41583   41592       2   41580
   41583       2   41580   41586       2   41580   41589       2   41778   41784
       2   41775   41784       2   41769   41778       2   41766   41775       2
   41760   41766       2   41757   41766       2   41757   41769       2   41751
   41760       2   41748   41757       2   41736   41748       2   41733   41748
       2   41733   41751       2   41715   41736       2   41712   41727       2
   41712   41733       2   41709   41727       2   41706   41718       2   41700
   41718       2   41697   41712       2   41697   41715       2   41694   41706
       2   41694   41709       2   41691   41700       2   41688   41691       2
   41688   41694       2   41688   41697       2   41886   41892       2   41883
   41892       2   41877   41886       2   41874   41883       2   41868   41874
       2   41865   41874       2   41865   41877       2   41859   41868       2
   41856   41865       2   41844   41856       2   41841   41856       2   41841
   41859       2   41823   41844       2   41820   41835       2   41820   41841
       2   41817   41835       2   41814   41826       2   41808   41826       2
   41805   41820       2   41805   41823       2   41802   41814       2   41802
   41817       2   41799   41808       2   41796   41799       2   41796   41802
       2   41796   41805       2   41994   42000       2   41991   42000       2
   41985   41994       2   41982   41991       2   41976   41982       2   41973
   41982       2   41973   41985       2   41967   41976       2   41964   41973
       2   41952   41964       2   41949   41964       2   41949   41967       2
   41931   41952       2   41928   41943       2   41928   41949       2   41925
   41943       2   41922   41934       2   41916   41934       2   41913   41928
       2   41913   41931       2   41910   41922       2   41910   41925       2
   41907   41916       2   41904   41907       2   41904   41910       2   41904
   41913       2   42102   42108       2   42099   42108       2   42093   42102
       2   42090   42099       2   42084   42090       2   42081   42090       2
   42081   42093       2   42075   42084       2   42072   42081       2   42060
   42072       2   42057   42072       2   42057   42075       2   42039   42060
       2   42036   42051       2   42036   42057       2   42033   42051       2
   42030   42042       2   42024   42042       2   42021   42036       2   42021
   42039       2   42018   42030       2   42018   42033       2   42015   42024
       2   42012   42015       2   42012   42018       2   42012   42021       2
   42210   42216       2   42207   42216       2   42201   42210       2   42198
   42207       2   42192   42198       2   42189   42198       2   42189   42201
       2   42183   42192       2   42180   42189       2   42168   42180       2
   42165   42180       2   42165   42183       2   42147   42168       2   42144
   42159       2   42144   42165       2   42141   42159       2   42138   42150
       2   42132   42150       2   42129   42144       2   42129   42147       2
   42126   42138       2   42126   42141       2   42123   42132       2   42120
   42123       2   42120   42126       2   42120   42129       2   42318   42324
       2   42315   42324       2   42309   42318       2   42306   42315       2
   42300   42306       2   42297   42306       2   42297   42309       2   42291
   42300       2   42288   42297       2   42276   42288       2   42273   42288
       2   42273   42291       2   42255   42276       2   42252   42267       2
   42252   42273       2   42249   42267       2   42246   42258       2   42240
   42258       2   42237   42252       2   42237   42255       2   42234   42246
       2   42234   42249       2   42231   42240       2   42228   42231       2
   42228   42234       2   42228   42237       2   42426   42432       2   42423
   42432       2   42417   42426       2   42414   42423       2   42408   42414
       2   42405   42414       2   42405   42417       2   42399   42408       2
   42396   42405       2   42384   42396       2   42381   42396       2   42381
   42399       2   42363   42384       2   42360   42375       2   42360   42381
       2   42357   42375       2   42354   42366       2   42348   42366       2
   42345   42360       2   42345   42363       2   42342   42354       2   42342
   42357       2   42339   42348       2   42336   42339       2   42336   42342
       2   42336   42345       2   42534   42540       2   42531   42540       2
   42525   42534       2   42522   42531       2   42516   42522       2   42513
   42522       2   42513   42525       2   42507   42516       2   42504   42513
       2   42492   42504       2   42489   42504       2   42489   42507       2
   42471   42492       2   42468   42483       2   42468   42489       2   42465
   42483       2   42462   42474       2   42456   42474       2   42453   42468
       2   42453   42471       2   42450   42462       2   42450   42465       2
   42447   42456       2   42444   42447       2   42444   42450       2   42444
   42453       2   42642   42648       2   42639   42648       2   42633   42642
       2   42630   42639       2   42624   42630       2   42621   42630       2
   42621   42633       2   42615   42624       2   42612   42621       2   42600
   42612       2   42597   42612       2   42597   42615       2   42579   42600
       2   42576   42591       2   42576   42597       2   42573   42591       2
   42570   42582       2   42564   42582       2   42561   42576       2   42561
   42579       2   42558   42570       2   42558   42573       2   42555   42564
       2   42552   42555       2   42552   42558       2   42552   42561       2
   42750   42756       2   42747   42756       2   42741   42750       2   42738
   42747       2   42732   42738       2   42729   42738       2   42729   42741
       2   42723   42732       2   42720   42729       2   42708   42720       2
   42705   42720       2   42705   42723       2   42687   42708       2   42684
   42699       2   42684   42705       2   42681   42699       2   42678   42690
       2   42672   42690       2   42669   42684       2   42669   42687       2
   42666   42678       2   42666   42681       2   42663   42672       2   42660
   42663       2   42660   42666       2   42660   42669       2   42858   42864
       2   42855   42864       2   42849   42858       2   42846   42855       2
   42840   42846       2   42837   42846       2   42837   42849       2   42831
   42840       2   42828   42837       2   42816   42828       2   42813   42828
       2   42813   42831       2   42795   42816       2   42792   42807       2
   42792   42813       2   42789   42807       2   42786   42798       2   42780
   42798       2   42777   42792       2   42777   42795       2   42774   42786
       2   42774   42789       2   42771   42780       2   42768   42771       2
   42768   42774       2   42768   42777       2   42966   42972       2   42963
   42972       2   42957   42966       2   42954   42963       2   42948   42954
       2   42945   42954       2   42945   42957       2   42939   42948       2
   42936   42945       2   42924   42936       2   42921   42936       2   42921
   42939       2   42903   42924       2   42900   42915       2   42900   42921
       2   42897   42915       2   42894   42906       2   42888   42906       2
   42885   42900       2   42885   42903       2   42882   42894       2   42882
   42897       2   42879   42888       2   42876   42879       2   42876   42882
       2   42876   42885       2   43074   43080       2   43071   43080       2
   43065   43074       2   43062   43071       2   43056   43062       2   43053
   43062       2   43053   43065       2   43047   43056       2   43044   43053
       2   43032   43044       2   43029   43044       2   43029   43047       2
   43011   43032       2   43008   43023       2   43008   43029       2   43005
   43023       2   43002   43014       2   42996   43014       2   42993   43008
       2   42993   43011       2   42990   43002       2   42990   43005       2
   42987   42996       2   42984   42987       2   42984   42990       2   42984
   42993       2   43182   43188       2   43179   43188       2   43173   43182
       2   43170   43179       2   43164   43170       2   43161   43170       2
   43161   43173       2   43155   43164       2   43152   43161       2   43140
   43152       2   43137   43152       2   43137   43155       2   43119   43140
       2   43116   43131       2   43116   43137       2   43113   43131       2
   43110   43122       2   43104   43122       2   43101   43116       2   43101
   43119       2   43098   43110       2   43098   43113       2   43095   43104
       2   43092   43095       2   43092   43098       2   43092   43101       2
   43290   43296       2   43287   43296       2   43281   43290       2   43278
   43287       2   43272   43278       2   43269   43278       2   43269   43281
       2   43263   43272       2   43260   43269       2   43248   43260       2
   43245   43260       2   43245   43263       2   43227   43248       2   43224
   43239       2   43224   43245       2   43221   43239       2   43218   43230
       2   43212   43230       2   43209   43224       2   43209   43227       2
   43206   43218       2   43206   43221       2   43203   43212       2   43200
   43203       2   43200   43206       2   43200   43209       2   43398   43404
       2   43395   43404       2   43389   43398       2   43386   43395       2
   43380   43386       2   43377   43386       2   43377   43389       2   43371
   43380       2   43368   43377       2   43356   43368       2   43353   43368
       2   43353   43371       2   43335   43356       2   43332   43347       2
   43332   43353       2   43329   43347       2   43326   43338       2   43320
   43338       2   43317   43332       2   43317   43335       2   43314   43326
       2   43314   43329       2   43311   43320       2   43308   43311       2
   43308   43314       2   43308   43317       2   43506   43512       2   43503
   43512       2   43497   43506       2   43494   43503       2   43488   43494
       2   43485   43494       2   43485   43497       2   43479   43488       2
   43476   43485       2   43464   43476       2   43461   43476       2   43461
   43479       2   43443   43464       2   43440   43455       2   43440   43461
       2   43437   43455       2   43434   43446       2   43428   43446       2
   43425   43440       2   43425   43443       2   43422   43434       2   43422
   43437       2   43419   43428       2   43416   43419       2   43416   43422
       2   43416   43425       2   43614   43620       2   43611   43620       2
   43605   43614       2   43602   43611       2   43596   43602       2   43593
   43602       2   43593   43605       2   43587   43596       2   43584   43593
       2   43572   43584       2   43569   43584       2   43569   43587       2
   43551   43572       2   43548   43563       2   43548   43569       2   43545
   43563       2   43542   43554       2   43536   43554       2   43533   43548
       2   43533   43551       2   43530   43542       2   43530   43545       2
   43527   43536       2   43524   43527       2   43524   43530       2   43524
   43533       2   43722   43728       2   43719   43728       2   43713   43722
       2   43710   43719       2   43704   43710       2   43701   43710       2
   43701   43713       2   43695   43704       2   43692   43701       2   43680
   43692       2   43677   43692       2   43677   43695       2   43659   43680
       2   43656   43671       2   43656   43677       2   43653   43671       2
   43650   43662       2   43644   43662       2   43641   43656       2   43641
   43659       2   43638   43650       2   43638   43653       2   43635   43644
       2   43632   43635       2   43632   43638       2   43632   43641       2
   43830   43836       2   43827   43836       2   43821   43830       2   43818
   43827       2   43812   43818       2   43809   43818       2   43809   43821
       2   43803   43812       2   43800   43809       2   43788   43800       2
   43785   43800       2   43785   43803       2   43767   43788       2   43764
   43779       2   43764   43785       2   43761   43779       2   43758   43770
       2   43752   43770       2   43749   43764       2   43749   43767       2
   43746   43758       2   43746   43761       2   43743   43752       2   43740
   43743       2   43740   43746       2   43740   43749       2   43938   43944
       2   43935   43944       2   43929   43938       2   43926   43935       2
   43920   43926       2   43917   43926       2   43917   43929       2   43911
   43920       2   43908   43917       2   43896   43908       2   43893   43908
       2   43893   43911       2   43875   43896       2   43872   43887       2
   43872   43893       2   43869   43887       2   43866   43878       2   43860
   43878       2   43857   43872       2   43857   43875       2   43854   43866
       2   43854   43869       2   43851   43860       2   43848   43851       2
   43848   43854       2   43848   43857       2   44046   44052       2   44043
   44052       2   44037   44046       2   44034   44043       2   44028   44034
       2   44025   44034       2   44025   44037       2   44019   44028       2
   44016   44025       2   44004   44016       2   44001   44016       2   44001
   44019       2   43983   44004       2   43980   43995       2   43980   44001
       2   43977   43995       2   43974   43986       2   43968   43986       2
   43965   43980       2   43965   43983       2   43962   43974       2   43962
   43977       2   43959   43968       2   43956   43959       2   43956   43962
       2   43956   43965       2   44154   44160       2   44151   44160       2
   44145   44154       2   44142   44151       2   44136   44142       2   44133
   44142       2   44133   44145       2   44127   44136       2   44124   44133
       2   44112   44124       2   44109   44124       2   44109   44127       2
   44091   44112       2   44088   44103       2   44088   44109       2   44085
   44103       2   44082   44094       2   44076   44094       2   44073   44088
       2   44073   44091       2   44070   44082       2   44070   44085       2
   44067   44076       2   44064   44067       2   44064   44070       2   44064
   44073       2   44262   44268       2   44259   44268       2   44253   44262
       2   44250   44259       2   44244   44250       2   44241   44250       2
   44241   44253       2   44235   44244       2   44232   44241       2   44220
   44232       2   44217   44232       2   44217   44235       2   44199   44220
       2   44196   44211       2   44196   44217       2   44193   44211       2
   44190   44202       2   44184   44202       2   44181   44196       2   44181
   44199       2   44178   44190       2   44178   44193       2   44175   44184
       2   44172   44175       2   44172   44178       2   44172   44181       2
   44370   44376       2   44367   44376       2   44361   44370       2   44358
   44367       2   44352   44358       2   44349   44358       2   44349   44361
       2   44343   44352       2   44340   44349       2   44328   44340       2
   44325   44340       2   44325   44343       2   44307   44328       2   44304
   44319       2   44304   44325       2   44301   44319       2   44298   44310
       2   44292   44310       2   44289   44304       2   44289   44307       2
   44286   44298       2   44286   44301       2   44283   44292       2   44280
   44283       2   44280   44286       2   44280   44289       2   44478   44484
       2   44475   44484       2   44469   44478       2   44466   44475       2
   44460   44466       2   44457   44466       2   44457   44469       2   44451
   44460       2   44448   44457       2   44436   44448       2   44433   44448
       2   44433   44451       2   44415   44436       2   44412   44427       2
   44412   44433       2   44409   44427       2   44406   44418       2   44400
   44418       2   44397   44412       2   44397   44415       2   44394   44406
       2   44394   44409       2   44391   44400       2   44388   44391       2
   44388   44394       2   44388   44397       2   44586   44592       2   44583
   44592       2   44577   44586       2   44574   44583       2   44568   44574
       2   44565   44574       2   44565   44577       2   44559   44568       2
   44556   44565       2   44544   44556       2   44541   44556       2   44541
   44559       2   44523   44544       2   44520   44535       2   44520   44541
       2   44517   44535       2   44514   44526       2   44508   44526       2
   44505   44520       2   44505   44523       2   44502   44514       2   44502
   44517       2   44499   44508       2   44496   44499       2   44496   44502
       2   44496   44505       2   44694   44700       2   44691   44700       2
   44685   44694       2   44682   44691       2   44676   44682       2   44673
   44682       2   44673   44685       2   44667   44676       2   44664   44673
       2   44652   44664       2   44649   44664       2   44649   44667       2
   44631   44652       2   44628   44643       2   44628   44649       2   44625
   44643       2   44622   44634       2   44616   44634       2   44613   44628
       2   44613   44631       2   44610   44622       2   44610   44625       2
   44607   44616       2   44604   44607       2   44604   44610       2   44604
   44613       2   44802   44808       2   44799   44808       2   44793   44802
       2   44790   44799       2   44784   44790       2   44781   44790       2
   44781   44793       2   44775   44784       2   44772   44781       2   44760
   44772       2   44757   44772       2   44757   44775       2   44739   44760
       2   44736   44751       2   44736   44757       2   44733   44751       2
   44730   44742       2   44724   44742       2   44721   44736       2   44721
   44739       2   44718   44730       2   44718   44733       2   44715   44724
       2   44712   44715       2   44712   44718       2   44712   44721       2
   44910   44916       2   44907   44916       2   44901   44910       2   44898
   44907       2   44892   44898       2   44889   44898       2   44889   44901
       2   44883   44892       2   44880   44889       2   44868   44880       2
   44865   44880       2   44865   44883       2   44847   44868       2   44844
   44859       2   44844   44865       2   44841   44859       2   44838   44850
       2   44832   44850       2   44829   44844       2   44829   44847       2
   44826   44838       2   44826   44841       2   44823   44832       2   44820
   44823       2   44820   44826       2   44820   44829       2   45018   45024
       2   45015   45024       2   45009   45018       2   45006   45015       2
   45000   45006       2   44997   45006       2   44997   45009       2   44991
   45000       2   44988   44997       2   44976   44988       2   44973   44988
       2   44973   44991       2   44955   44976       2   44952   44967       2
   44952   44973       2   44949   44967       2   44946   44958       2   44940
   44958       2   44937   44952       2   44937   44955       2   44934   44946
       2   44934   44949       2   44931   44940       2   44928   44931       2
   44928   44934       2   44928   44937       2   45126   45132       2   45123
   45132       2   45117   45126       2   45114   45123       2   45108   45114
       2   45105   45114       2   45105   45117       2   45099   45108       2
   45096   45105       2   45084   45096       2   45081   45096       2   45081
   45099       2   45063   45084       2   45060   45075       2   45060   45081
       2   45057   45075       2   45054   45066       2   45048   45066       2
   45045   45060       2   45045   45063       2   45042   45054       2   45042
   45057       2   45039   45048       2   45036   45039       2   45036   45042
       2   45036   45045       2   45234   45240       2   45231   45240       2
   45225   45234       2   45222   45231       2   45216   45222       2   45213
   45222       2   45213   45225       2   45207   45216       2   45204   45213
       2   45192   45204       2   45189   45204       2   45189   45207       2
   45171   45192       2   45168   45183       2   45168   45189       2   45165
   45183       2   45162   45174       2   45156   45174       2   45153   45168
       2   45153   45171       2   45150   45162       2   45150   45165       2
   45147   45156       2   45144   45147       2   45144   45150       2   45144
   45153       2   45342   45348       2   45339   45348       2   45333   45342
       2   45330   45339       2   45324   45330       2   45321   45330       2
   45321   45333       2   45315   45324       2   45312   45321       2   45300
   45312       2   45297   45312       2   45297   45315       2   45279   45300
       2   45276   45291       2   45276   45297       2   45273   45291       2
   45270   45282       2   45264   45282       2   45261   45276       2   45261
   45279       2   45258   45270       2   45258   45273       2   45255   45264
       2   45252   45255       2   45252   45258       2   45252   45261       2
   45450   45456       2   45447   45456       2   45441   45450       2   45438
   45447       2   45432   45438       2   45429   45438       2   45429   45441
       2   45423   45432       2   45420   45429       2   45408   45420       2
   45405   45420       2   45405   45423       2   45387   45408       2   45384
   45399       2   45384   45405       2   45381   45399       2   45378   45390
       2   45372   45390       2   45369   45384       2   45369   45387       2
   45366   45378       2   45366   45381       2   45363   45372       2   45360
   45363       2   45360   45366       2   45360   45369       2   45558   45564
       2   45555   45564       2   45549   45558       2   45546   45555       2
   45540   45546       2   45537   45546       2   45537   45549       2   45531
   45540       2   45528   45537       2   45516   45528       2   45513   45528
       2   45513   45531       2   45495   45516       2   45492   45507       2
   45492   45513       2   45489   45507       2   45486   45498       2   45480
   45498       2   45477   45492       2   45477   45495       2   45474   45486
       2   45474   45489       2   45471   45480       2   45468   45471       2
   45468   45474       2   45468   45477       2   45666   45672       2   45663
   45672       2   45657   45666       2   45654   45663       2   45648   45654
       2   45645   45654       2   45645   45657       2   45639   45648       2
   45636   45645       2   45624   45636       2   45621   45636       2   45621
   45639       2   45603   45624       2   45600   45615       2   45600   45621
       2   45597   45615       2   45594   45606       2   45588   45606       2
   45585   45600       2   45585   45603       2   45582   45594       2   45582
   45597       2   45579   45588       2   45576   45579       2   45576   45582
       2   45576   45585       2   45774   45780       2   45771   45780       2
   45765   45774       2   45762   45771       2   45756   45762       2   45753
   45762       2   45753   45765       2   45747   45756       2   45744   45753
       2   45732   45744       2   45729   45744       2   45729   45747       2
   45711   45732       2   45708   45723       2   45708   45729       2   45705
   45723       2   45702   45714       2   45696   45714       2   45693   45708
       2   45693   45711       2   45690   45702       2   45690   45705       2
   45687   45696       2   45684   45687       2   45684   45690       2   45684
   45693       2   45882   45888       2   45879   45888       2   45873   45882
       2   45870   45879       2   45864   45870       2   45861   45870       2
   45861   45873       2   45855   45864       2   45852   45861       2   45840
   45852       2   45837   45852       2   45837   45855       2   45819   45840
       2   45816   45831       2   45816   45837       2   45813   45831       2
   45810   45822       2   45804   45822       2   45801   45816       2   45801
   45819       2   45798   45810       2   45798   45813       2   45795   45804
       2   45792   45795       2   45792   45798       2   45792   45801       2
   45990   45996       2   45987   45996       2   45981   45990       2   45978
   45987       2   45972   45978       2   45969   45978       2   45969   45981
       2   45963   45972       2   45960   45969       2   45948   45960       2
   45945   45960       2   45945   45963       2   45927   45948       2   45924
   45939       2   45924   45945       2   45921   45939       2   45918   45930
       2   45912   45930       2   45909   45924       2   45909   45927       2
   45906   45918       2   45906   45921       2   45903   45912       2   45900
   45903       2   45900   45906       2   45900   45909       2   46098   46104
       2   46095   46104       2   46089   46098       2   46086   46095       2
   46080   46086       2   46077   46086       2   46077   46089       2   46071
   46080       2   46068   46077       2   46056   46068       2   46053   46068
       2   46053   46071       2   46035   46056       2   46032   46047       2
   46032   46053       2   46029   46047       2   46026   46038       2   46020
   46038       2   46017   46032       2   46017   46035       2   46014   46026
       2   46014   46029       2   46011   46020       2   46008   46011       2
   46008   46014       2   46008   46017       2   46206   46212       2   46203
   46212       2   46197   46206       2   46194   46203       2   46188   46194
       2   46185   46194       2   46185   46197       2   46179   46188       2
   46176   46185       2   46164   46176       2   46161   46176       2   46161
   46179       2   46143   46164       2   46140   46155       2   46140   46161
       2   46137   46155       2   46134   46146       2   46128   46146       2
   46125   46140       2   46125   46143       2   46122   46134       2   46122
   46137       2   46119   46128       2   46116   46119       2   46116   46122
       2   46116   46125       2   46314   46320       2   46311   46320       2
   46305   46314       2   46302   46311       2   46296   46302       2   46293
   46302       2   46293   46305       2   46287   46296       2   46284   46293
       2   46272   46284       2   46269   46284       2   46269   46287       2
   46251   46272       2   46248   46263       2   46248   46269       2   46245
   46263       2   46242   46254       2   46236   46254       2   46233   46248
       2   46233   46251       2   46230   46242       2   46230   46245       2
   46227   46236       2   46224   46227       2   46224   46230       2   46224
   46233       2   46422   46428       2   46419   46428       2   46413   46422
       2   46410   46419       2   46404   46410       2   46401   46410       2
   46401   46413       2   46395   46404       2   46392   46401       2   46380
   46392       2   46377   46392       2   46377   46395       2   46359   46380
       2   46356   46371       2   46356   46377       2   46353   46371       2
   46350   46362       2   46344   46362       2   46341   46356       2   46341
   46359       2   46338   46350       2   46338   46353       2   46335   46344
       2   46332   46335       2   46332   46338       2   46332   46341       2
   46530   46536       2   46527   46536       2   46521   46530       2   46518
   46527       2   46512   46518       2   46509   46518       2   46509   46521
       2   46503   46512       2   46500   46509       2   46488   46500       2
   46485   46500       2   46485   46503       2   46467   46488       2   46464
   46479       2   46464   46485       2   46461   46479       2   46458   46470
       2   46452   46470       2   46449   46464       2   46449   46467       2
   46446   46458       2   46446   46461       2   46443   46452       2   46440
   46443       2   46440   46446       2   46440   46449       2   46638   46644
       2   46635   46644       2   46629   46638       2   46626   46635       2
   46620   46626       2   46617   46626       2   46617   46629       2   46611
   46620       2   46608   46617       2   46596   46608       2   46593   46608
       2   46593   46611       2   46575   46596       2   46572   46587       2
   46572   46593       2   46569   46587       2   46566   46578       2   46560
   46578       2   46557   46572       2   46557   46575       2   46554   46566
       2   46554   46569       2   46551   46560       2   46548   46551       2
   46548   46554       2   46548   46557       2   46746   46752       2   46743
   46752       2   46737   46746       2   46734   46743       2   46728   46734
       2   46725   46734       2   46725   46737       2   46719   46728       2
   46716   46725       2   46704   46716       2   46701   46716       2   46701
   46719       2   46683   46704       2   46680   46695       2   46680   46701
       2   46677   46695       2   46674   46686       2   46668   46686       2
   46665   46680       2   46665   46683       2   46662   46674       2   46662
   46677       2   46659   46668       2   46656   46659       2   46656   46662
       2   46656   46665       2   46854   46860       2   46851   46860       2
   46845   46854       2   46842   46851       2   46836   46842       2   46833
   46842       2   46833   46845       2   46827   46836       2   46824   46833
       2   46812   46824       2   46809   46824       2   46809   46827       2
   46791   46812       2   46788   46803       2   46788   46809       2   46785
   46803       2   46782   46794       2   46776   46794       2   46773   46788
       2   46773   46791       2   46770   46782       2   46770   46785       2
   46767   46776       2   46764   46767       2   46764   46770       2   46764
   46773       2   46962   46968       2   46959   46968       2   46953   46962
       2   46950   46959       2   46944   46950       2   46941   46950       2
   46941   46953       2   46935   46944       2   46932   46941       2   46920
   46932       2   46917   46932       2   46917   46935       2   46899   46920
       2   46896   46911       2   46896   46917       2   46893   46911       2
   46890   46902       2   46884   46902       2   46881   46896       2   46881
   46899       2   46878   46890       2   46878   46893       2   46875   46884
       2   46872   46875       2   46872   46878       2   46872   46881       2
   47070   47076       2   47067   47076       2   47061   47070       2   47058
   47067       2   47052   47058       2   47049   47058       2   47049   47061
       2   47043   47052       2   47040   47049       2   47028   47040       2
   47025   47040       2   47025   47043       2   47007   47028       2   47004
   47019       2   47004   47025       2   47001   47019       2   46998   47010
       2   46992   47010       2   46989   47004       2   46989   47007       2
   46986   46998       2   46986   47001       2   46983   46992       2   46980
   46983       2   46980   46986       2   46980   46989       2   47178   47184
       2   47175   47184       2   47169   47178       2   47166   47175       2
   47160   47166       2   47157   47166       2   47157   47169       2   47151
   47160       2   47148   47157       2   47136   47148       2   47133   47148
       2   47133   47151       2   47115   47136       2   47112   47127       2
   47112   47133       2   47109   47127       2   47106   47118       2   47100
   47118       2   47097   47112       2   47097   47115       2   47094   47106
       2   47094   47109       2   47091   47100       2   47088   47091       2
   47088   47094       2   47088   47097       2   47286   47292       2   47283
   47292       2   47277   47286       2   47274   47283       2   47268   47274
       2   47265   47274       2   47265   47277       2   47259   47268       2
   47256   47265       2   47244   47256       2   47241   47256       2   47241
   47259       2   47223   47244       2   47220   47235       2   47220   47241
       2   47217   47235       2   47214   47226       2   47208   47226       2
   47205   47220       2   47205   47223       2   47202   47214       2   47202
   47217       2   47199   47208       2   47196   47199       2   47196   47202
       2   47196   47205       2   47394   47400       2   47391   47400       2
   47385   47394       2   47382   47391       2   47376   47382       2   47373
   47382       2   47373   47385       2   47367   47376       2   47364   47373
       2   47352   47364       2   47349   47364       2   47349   47367       2
   47331   47352       2   47328   47343       2   47328   47349       2   47325
   47343       2   47322   47334       2   47316   47334       2   47313   47328
       2   47313   47331       2   47310   47322       2   47310   47325       2
   47307   47316       2   47304   47307       2   47304   47310       2   47304
   47313       2   47502   47508       2   47499   47508       2   47493   47502
       2   47490   47499       2   47484   47490       2   47481   47490       2
   47481   47493       2   47475   47484       2   47472   47481       2   47460
   47472       2   47457   47472       2   47457   47475       2   47439   47460
       2   47436   47451       2   47436   47457       2   47433   47451       2
   47430   47442       2   47424   47442       2   47421   47436       2   47421
   47439       2   47418   47430       2   47418   47433       2   47415   47424
       2   47412   47415       2   47412   47418       2   47412   47421       2
   47610   47616       2   47607   47616       2   47601   47610       2   47598
   47607       2   47592   47598       2   47589   47598       2   47589   47601
       2   47583   47592       2   47580   47589       2   47568   47580       2
   47565   47580       2   47565   47583       2   47547   47568       2   47544
   47559       2   47544   47565       2   47541   47559       2   47538   47550
       2   47532   47550       2   47529   47544       2   47529   47547       2
   47526   47538       2   47526   47541       2   47523   47532       2   47520
   47523       2   47520   47526       2   47520   47529       2   47718   47724
       2   47715   47724       2   47709   47718       2   47706   47715       2
   47700   47706       2   47697   47706       2   47697   47709       2   47691
   47700       2   47688   47697       2   47676   47688       2   47673   47688
       2   47673   47691       2   47655   47676       2   47652   47667       2
   47652   47673       2   47649   47667       2   47646   47658       2   47640
   47658       2   47637   47652       2   47637   47655       2   47634   47646
       2   47634   47649       2   47631   47640       2   47628   47631       2
   47628   47634       2   47628   47637       2   47826   47832       2   47823
   47832       2   47817   47826       2   47814   47823       2   47808   47814
       2   47805   47814       2   47805   47817       2   47799   47808       2
   47796   47805       2   47784   47796       2   47781   47796       2   47781
   47799       2   47763   47784       2   47760   47775       2   47760   47781
       2   47757   47775       2   47754   47766       2   47748   47766       2
   47745   47760       2   47745   47763       2   47742   47754       2   47742
   47757       2   47739   47748       2   47736   47739       2   47736   47742
       2   47736   47745       2   47934   47940       2   47931   47940       2
   47925   47934       2   47922   47931       2   47916   47922       2   47913
   47922       2   47913   47925       2   47907   47916       2   47904   47913
       2   47892   47904       2   47889   47904       2   47889   47907       2
   47871   47892       2   47868   47883       2   47868   47889       2   47865
   47883       2   47862   47874       2   47856   47874       2   47853   47868
       2   47853   47871       2   47850   47862       2   47850   47865       2
   47847   47856       2   47844   47847       2   47844   47850       2   47844
   47853       2   48042   48048       2   48039   48048       2   48033   48042
       2   48030   48039       2   48024   48030       2   48021   48030       2
   48021   48033       2   48015   48024       2   48012   48021       2   48000
   48012       2   47997   48012       2   47997   48015       2   47979   48000
       2   47976   47991       2   47976   47997       2   47973   47991       2
   47970   47982       2   47964   47982       2   47961   47976       2   47961
   47979       2   47958   47970       2   47958   47973       2   47955   47964
       2   47952   47955       2   47952   47958       2   47952   47961       2
   48150   48156       2   48147   48156       2   48141   48150       2   48138
   48147       2   48132   48138       2   48129   48138       2   48129   48141
       2   48123   48132       2   48120   48129       2   48108   48120       2
   48105   48120       2   48105   48123       2   48087   48108       2   48084
   48099       2   48084   48105       2   48081   48099       2   48078   48090
       2   48072   48090       2   48069   48084       2   48069   48087       2
   48066   48078       2   48066   48081       2   48063   48072       2   48060
   48063       2   48060   48066       2   48060   48069       2   48258   48264
       2   48255   48264       2   48249   48258       2   48246   48255       2
   48240   48246       2   48237   48246       2   48237   48249       2   48231
   48240       2   48228   48237       2   48216   48228       2   48213   48228
       2   48213   48231       2   48195   48216       2   48192   48207       2
   48192   48213       2   48189   48207       2   48186   48198       2   48180
   48198       2   48177   48192       2   48177   48195       2   48174   48186
       2   48174   48189       2   48171   48180       2   48168   48171       2
   48168   48174       2   48168   48177       2   48366   48372       2   48363
   48372       2   48357   48366       2   48354   48363       2   48348   48354
       2   48345   48354       2   48345   48357       2   48339   48348       2
   48336   48345       2   48324   48336       2   48321   48336       2   48321
   48339       2   48303   48324       2   48300   48315       2   48300   48321
       2   48297   48315       2   48294   48306       2   48288   48306       2
   48285   48300       2   48285   48303       2   48282   48294       2   48282
   48297       2   48279   48288       2   48276   48279       2   48276   48282
       2   48276   48285       2   48474   48480       2   48471   48480       2
   48465   48474       2   48462   48471       2   48456   48462       2   48453
   48462       2   48453   48465       2   48447   48456       2   48444   48453
       2   48432   48444       2   48429   48444       2   48429   48447       2
   48411   48432       2   48408   48423       2   48408   48429       2   48405
   48423       2   48402   48414       2   48396   48414       2   48393   48408
       2   48393   48411       2   48390   48402       2   48390   48405       2
   48387   48396       2   48384   48387       2   48384   48390       2   48384
   48393       2   48582   48588       2   48579   48588       2   48573   48582
       2   48570   48579       2   48564   48570       2   48561   48570       2
   48561   48573       2   48555   48564       2   48552   48561       2   48540
   48552       2   48537   48552       2   48537   48555       2   48519   48540
       2   48516   48531       2   48516   48537       2   48513   48531       2
   48510   48522       2   48504   48522       2   48501   48516       2   48501
   48519       2   48498   48510       2   48498   48513       2   48495   48504
       2   48492   48495       2   48492   48498       2   48492   48501       2
   48690   48696       2   48687   48696       2   48681   48690       2   48678
   48687       2   48672   48678       2   48669   48678       2   48669   48681
       2   48663   48672       2   48660   48669       2   48648   48660       2
   48645   48660       2   48645   48663       2   48627   48648       2   48624
   48639       2   48624   48645       2   48621   48639       2   48618   48630
       2   48612   48630       2   48609   48624       2   48609   48627       2
   48606   48618       2   48606   48621       2   48603   48612       2   48600
   48603       2   48600   48606       2   48600   48609       2   48798   48804
       2   48795   48804       2   48789   48798       2   48786   48795       2
   48780   48786       2   48777   48786       2   48777   48789       2   48771
   48780       2   48768   48777       2   48756   48768       2   48753   48768
       2   48753   48771       2   48735   48756       2   48732   48747       2
   48732   48753       2   48729   48747       2   48726   48738       2   48720
   48738       2   48717   48732       2   48717   48735       2   48714   48726
       2   48714   48729       2   48711   48720       2   48708   48711       2
   48708   48714       2   48708   48717       2   48906   48912       2   48903
   48912       2   48897   48906       2   48894   48903       2   48888   48894
       2   48885   48894       2   48885   48897       2   48879   48888       2
   48876   48885       2   48864   48876       2   48861   48876       2   48861
   48879       2   48843   48864       2   48840   48855       2   48840   48861
       2   48837   48855       2   48834   48846       2   48828   48846       2
   48825   48840       2   48825   48843       2   48822   48834       2   48822
   48837       2   48819   48828       2   48816   48819       2   48816   48822
       2   48816   48825       2   49014   49020       2   49011   49020       2
   49005   49014       2   49002   49011       2   48996   49002       2   48993
   49002       2   48993   49005       2   48987   48996       2   48984   48993
       2   48972   48984       2   48969   48984       2   48969   48987       2
   48951   48972       2   48948   48963       2   48948   48969       2   48945
   48963       2   48942   48954       2   48936   48954       2   48933   48948
       2   48933   48951       2   48930   48942       2   48930   48945       2
   48927   48936       2   48924   48927       2   48924   48930       2   48924
   48933       2   49122   49128       2   49119   49128       2   49113   49122
       2   49110   49119       2   49104   49110       2   49101   49110       2
   49101   49113       2   49095   49104       2   49092   49101       2   49080
   49092       2   49077   49092       2   49077   49095       2   49059   49080
       2   49056   49071       2   49056   49077       2   49053   49071       2
   49050   49062       2   49044   49062       2   49041   49056       2   49041
   49059       2   49038   49050       2   49038   49053       2   49035   49044
       2   49032   49035       2   49032   49038       2   49032   49041       2
   49230   49236       2   49227   49236       2   49221   49230       2   49218
   49227       2   49212   49218       2   49209   49218       2   49209   49221
       2   49203   49212       2   49200   49209       2   49188   49200       2
   49185   49200       2   49185   49203       2   49167   49188       2   49164
   49179       2   49164   49185       2   49161   49179       2   49158   49170
       2   49152   49170       2   49149   49164       2   49149   49167       2
   49146   49158       2   49146   49161       2   49143   49152       2   49140
   49143       2   49140   49146       2   49140   49149       2   49338   49344
       2   49335   49344       2   49329   49338       2   49326   49335       2
   49320   49326       2   49317   49326       2   49317   49329       2   49311
   49320       2   49308   49317       2   49296   49308       2   49293   49308
       2   49293   49311       2   49275   49296       2   49272   49287       2
   49272   49293       2   49269   49287       2   49266   49278       2   49260
   49278       2   49257   49272       2   49257   49275       2   49254   49266
       2   49254   49269       2   49251   49260       2   49248   49251       2
   49248   49254       2   49248   49257       2   49446   49452       2   49443
   49452       2   49437   49446       2   49434   49443       2   49428   49434
       2   49425   49434       2   49425   49437       2   49419   49428       2
   49416   49425       2   49404   49416       2   49401   49416       2   49401
   49419       2   49383   49404       2   49380   49395       2   49380   49401
       2   49377   49395       2   49374   49386       2   49368   49386       2
   49365   49380       2   49365   49383       2   49362   49374       2   49362
   49377       2   49359   49368       2   49356   49359       2   49356   49362
       2   49356   49365       2   49554   49560       2   49551   49560       2
   49545   49554       2   49542   49551       2   49536   49542       2   49533
   49542       2   49533   49545       2   49527   49536       2   49524   49533
       2   49512   49524       2   49509   49524       2   49509   49527       2
   49491   49512       2   49488   49503       2   49488   49509       2   49485
   49503       2   49482   49494       2   49476   49494       2   49473   49488
       2   49473   49491       2   49470   49482       2   49470   49485       2
   49467   49476       2   49464   49467       2   49464   49470       2   49464
   49473       2   49662   49668       2   49659   49668       2   49653   49662
       2   49650   49659       2   49644   49650       2   49641   49650       2
   49641   49653       2   49635   49644       2   49632   49641       2   49620
   49632       2   49617   49632       2   49617   49635       2   49599   49620
       2   49596   49611       2   49596   49617       2   49593   49611       2
   49590   49602       2   49584   49602       2   49581   49596       2   49581
   49599       2   49578   49590       2   49578   49593       2   49575   49584
       2   49572   49575       2   49572   49578       2   49572   49581       2
   49770   49776       2   49767   49776       2   49761   49770       2   49758
   49767       2   49752   49758       2   49749   49758       2   49749   49761
       2   49743   49752       2   49740   49749       2   49728   49740       2
   49725   49740       2   49725   49743       2   49707   49728       2   49704
   49719       2   49704   49725       2   49701   49719       2   49698   49710
       2   49692   49710       2   49689   49704       2   49689   49707       2
   49686   49698       2   49686   49701       2   49683   49692       2   49680
   49683       2   49680   49686       2   49680   49689       2   49878   49884
       2   49875   49884       2   49869   49878       2   49866   49875       2
   49860   49866       2   49857   49866       2   49857   49869       2   49851
   49860       2   49848   49857       2   49836   49848       2   49833   49848
       2   49833   49851       2   49815   49836       2   49812   49827       2
   49812   49833       2   49809   49827       2   49806   49818       2   49800
   49818       2   49797   49812       2   49797   49815       2   49794   49806
       2   49794   49809       2   49791   49800       2   49788   49791       2
   49788   49794       2   49788   49797       2   49986   49992       2   49983
   49992       2   49977   49986       2   49974   49983       2   49968   49974
       2   49965   49974       2   49965   49977       2   49959   49968       2
   49956   49965       2   49944   49956       2   49941   49956       2   49941
   49959       2   49923   49944       2   49920   49935       2   49920   49941
       2   49917   49935       2   49914   49926       2   49908   49926       2
   49905   49920       2   49905   49923       2   49902   49914       2   49902
   49917       2   49899   49908       2   49896   49899       2   49896   49902
       2   49896   49905       2   50094   50100       2   50091   50100       2
   50085   50094       2   50082   50091       2   50076   50082       2   50073
   50082       2   50073   50085       2   50067   50076       2   50064   50073
       2   50052   50064       2   50049   50064       2   50049   50067       2
   50031   50052       2   50028   50043       2   50028   50049       2   50025
   50043       2   50022   50034       2   50016   50034       2   50013   50028
       2   50013   50031       2   50010   50022       2   50010   50025       2
   50007   50016       2   50004   50007       2   50004   50010       2   50004
   50013       2   50202   50208       2   50199   50208       2   50193   50202
       2   50190   50199       2   50184   50190       2   50181   50190       2
   50181   50193       2   50175   50184       2   50172   50181       2   50160
   50172       2   50157   50172       2   50157   50175       2   50139   50160
       2   50136   50151       2   50136   50157       2   50133   50151       2
   50130   50142       2   50124   50142       2   50121   50136       2   50121
   50139       2   50118   50130       2   50118   50133       2   50115   50124
       2   50112   50115       2   50112   50118       2   50112   50121       2
   50310   50316       2   50307   50316       2   50301   50310       2   50298
   50307       2   50292   50298       2   50289   50298       2   50289   50301
       2   50283   50292       2   50280   50289       2   50268   50280       2
   50265   50280       2   50265   50283       2   50247   50268       2   50244
   50259       2   50244   50265       2   50241   50259       2   50238   50250
       2   50232   50250       2   50229   50244       2   50229   50247       2
   50226   50238       2   50226   50241       2   50223   50232       2   50220
   50223       2   50220   50226       2   50220   50229       2   50418   50424
       2   50415   50424       2   50409   50418       2   50406   50415       2
   50400   50406       2   50397   50406       2   50397   50409       2   50391
   50400       2   50388   50397       2   50376   50388       2   50373   50388
       2   50373   50391       2   50355   50376       2   50352   50367       2
   50352   50373       2   50349   50367       2   50346   50358       2   50340
   50358       2   50337   50352       2   50337   50355       2   50334   50346
       2   50334   50349       2   50331   50340       2   50328   50331       2
   50328   50334       2   50328   50337       2   50526   50532       2   50523
   50532       2   50517   50526       2   50514   50523       2   50508   50514
       2   50505   50514       2   50505   50517       2   50499   50508       2
   50496   50505       2   50484   50496       2   50481   50496       2   50481
   50499       2   50463   50484       2   50460   50475       2   50460   50481
       2   50457   50475       2   50454   50466       2   50448   50466       2
   50445   50460       2   50445   50463       2   50442   50454       2   50442
   50457       2   50439   50448       2   50436   50439       2   50436   50442
       2   50436   50445       2   50634   50640       2   50631   50640       2
   50625   50634       2   50622   50631       2   50616   50622       2   50613
   50622       2   50613   50625       2   50607   50616       2   50604   50613
       2   50592   50604       2   50589   50604       2   50589   50607       2
   50571   50592       2   50568   50583       2   50568   50589       2   50565
   50583       2   50562   50574       2   50556   50574       2   50553   50568
       2   50553   50571       2   50550   50562       2   50550   50565       2
   50547   50556       2   50544   50547       2   50544   50550       2   50544
   50553       2   50742   50748       2   50739   50748       2   50733   50742
       2   50730   50739       2   50724   50730       2   50721   50730       2
   50721   50733       2   50715   50724       2   50712   50721       2   50700
   50712       2   50697   50712       2   50697   50715       2   50679   50700
       2   50676   50691       2   50676   50697       2   50673   50691       2
   50670   50682       2   50664   50682       2   50661   50676       2   50661
   50679       2   50658   50670       2   50658   50673       2   50655   50664
       2   50652   50655       2   50652   50658       2   50652   50661       2
   50850   50856       2   50847   50856       2   50841   50850       2   50838
   50847       2   50832   50838       2   50829   50838       2   50829   50841
       2   50823   50832       2   50820   50829       2   50808   50820       2
   50805   50820       2   50805   50823       2   50787   50808       2   50784
   50799       2   50784   50805       2   50781   50799       2   50778   50790
       2   50772   50790       2   50769   50784       2   50769   50787       2
   50766   50778       2   50766   50781       2   50763   50772       2   50760
   50763       2   50760   50766       2   50760   50769       2   50958   50964
       2   50955   50964       2   50949   50958       2   50946   50955       2
   50940   50946       2   50937   50946       2   50937   50949       2   50931
   50940       2   50928   50937       2   50916   50928       2   50913   50928
       2   50913   50931       2   50895   50916       2   50892   50907       2
   50892   50913       2   50889   50907       2   50886   50898       2   50880
   50898       2   50877   50892       2   50877   50895       2   50874   50886
       2   50874   50889       2   50871   50880       2   50868   50871       2
   50868   50874       2   50868   50877       2   51066   51072       2   51063
   51072       2   51057   51066       2   51054   51063       2   51048   51054
       2   51045   51054       2   51045   51057       2   51039   51048       2
   51036   51045       2   51024   51036       2   51021   51036       2   51021
   51039       2   51003   51024       2   51000   51015       2   51000   51021
       2   50997   51015       2   50994   51006       2   50988   51006       2
   50985   51000       2   50985   51003       2   50982   50994       2   50982
   50997       2   50979   50988       2   50976   50979       2   50976   50982
       2   50976   50985       2   51174   51180       2   51171   51180       2
   51165   51174       2   51162   51171       2   51156   51162       2   51153
   51162       2   51153   51165       2   51147   51156       2   51144   51153
       2   51132   51144       2   51129   51144       2   51129   51147       2
   51111   51132       2   51108   51123       2   51108   51129       2   51105
   51123       2   51102   51114       2   51096   51114       2   51093   51108
       2   51093   51111       2   51090   51102       2   51090   51105       2
   51087   51096       2   51084   51087       2   51084   51090       2   51084
   51093       2   51282   51288       2   51279   51288       2   51273   51282
       2   51270   51279       2   51264   51270       2   51261   51270       2
   51261   51273       2   51255   51264       2   51252   51261       2   51240
   51252       2   51237   51252       2   51237   51255       2   51219   51240
       2   51216   51231       2   51216   51237       2   51213   51231       2
   51210   51222       2   51204   51222       2   51201   51216       2   51201
   51219       2   51198   51210       2   51198   51213       2   51195   51204
       2   51192   51195       2   51192   51198       2   51192   51201       2
   51390   51396       2   51387   51396       2   51381   51390       2   51378
   51387       2   51372   51378       2   51369   51378       2   51369   51381
       2   51363   51372       2   51360   51369       2   51348   51360       2
   51345   51360       2   51345   51363       2   51327   51348       2   51324
   51339       2   51324   51345       2   51321   51339       2   51318   51330
       2   51312   51330       2   51309   51324       2   51309   51327       2
   51306   51318       2   51306   51321       2   51303   51312       2   51300
   51303       2   51300   51306       2   51300   51309       2   51498   51504
       2   51495   51504       2   51489   51498       2   51486   51495       2
   51480   51486       2   51477   51486       2   51477   51489       2   51471
   51480       2   51468   51477       2   51456   51468       2   51453   51468
       2   51453   51471       2   51435   51456       2   51432   51447       2
   51432   51453       2   51429   51447       2   51426   51438       2   51420
   51438       2   51417   51432       2   51417   51435       2   51414   51426
       2   51414   51429       2   51411   51420       2   51408   51411       2
   51408   51414       2   51408   51417       2   51606   51612       2   51603
   51612       2   51597   51606       2   51594   51603       2   51588   51594
       2   51585   51594       2   51585   51597       2   51579   51588       2
   51576   51585       2   51564   51576       2   51561   51576       2   51561
   51579       2   51543   51564       2   51540   51555       2   51540   51561
       2   51537   51555       2   51534   51546       2   51528   51546       2
   51525   51540       2   51525   51543       2   51522   51534       2   51522
   51537       2   51519   51528       2   51516   51519       2   51516   51522
       2   51516   51525       2   51714   51720       2   51711   51720       2
   51705   51714       2   51702   51711       2   51696   51702       2   51693
   51702       2   51693   51705       2   51687   51696       2   51684   51693
       2   51672   51684       2   51669   51684       2   51669   51687       2
   51651   51672       2   51648   51663       2   51648   51669       2   51645
   51663       2   51642   51654       2   51636   51654       2   51633   51648
       2   51633   51651       2   51630   51642       2   51630   51645       2
   51627   51636       2   51624   51627       2   51624   51630       2   51624
   51633       2   51822   51828       2   51819   51828       2   51813   51822
       2   51810   51819       2   51804   51810       2   51801   51810       2
   51801   51813       2   51795   51804       2   51792   51801       2   51780
   51792       2   51777   51792       2   51777   51795       2   51759   51780
       2   51756   51771       2   51756   51777       2   51753   51771       2
   51750   51762       2   51744   51762       2   51741   51756       2   51741
   51759       2   51738   51750       2   51738   51753       2   51735   51744
       2   51732   51735       2   51732   51738       2   51732   51741       2
   51930   51936       2   51927   51936       2   51921   51930       2   51918
   51927       2   51912   51918       2   51909   51918       2   51909   51921
       2   51903   51912       2   51900   51909       2   51888   51900       2
   51885   51900       2   51885   51903       2   51867   51888       2   51864
   51879       2   51864   51885       2   51861   51879       2   51858   51870
       2   51852   51870       2   51849   51864       2   51849   51867       2
   51846   51858       2   51846   51861       2   51843   51852       2   51840
   51843       2   51840   51846       2   51840   51849       2   52038   52044
       2   52035   52044       2   52029   52038       2   52026   52035       2
   52020   52026       2   52017   52026       2   52017   52029       2   52011
   52020       2   52008   52017       2   51996   52008       2   51993   52008
       2   51993   52011       2   51975   51996       2   51972   51987       2
   51972   51993       2   51969   51987       2   51966   51978       2   51960
   51978       2   51957   51972       2   51957   51975       2   51954   51966
       2   51954   51969       2   51951   51960       2   51948   51951       2
   51948   51954       2   51948   51957       2   52146   52152       2   52143
   52152       2   52137   52146       2   52134   52143       2   52128   52134
       2   52125   52134       2   52125   52137       2   52119   52128       2
   52116   52125       2   52104   52116       2   52101   52116       2   52101
   52119       2   52083   52104       2   52080   52095       2   52080   52101
       2   52077   52095       2   52074   52086       2   52068   52086       2
   52065   52080       2   52065   52083       2   52062   52074       2   52062
   52077       2   52059   52068       2   52056   52059       2   52056   52062
       2   52056   52065       2   52254   52260       2   52251   52260       2
   52245   52254       2   52242   52251       2   52236   52242       2   52233
   52242       2   52233   52245       2   52227   52236       2   52224   52233
       2   52212   52224       2   52209   52224       2   52209   52227       2
   52191   52212       2   52188   52203       2   52188   52209       2   52185
   52203       2   52182   52194       2   52176   52194       2   52173   52188
       2   52173   52191       2   52170   52182       2   52170   52185       2
   52167   52176       2   52164   52167       2   52164   52170       2   52164
   52173       2   52362   52368       2   52359   52368       2   52353   52362
       2   52350   52359       2   52344   52350       2   52341   52350       2
   52341   52353       2   52335   52344       2   52332   52341       2   52320
   52332       2   52317   52332       2   52317   52335       2   52299   52320
       2   52296   52311       2   52296   52317       2   52293   52311       2
   52290   52302       2   52284   52302       2   52281   52296       2   52281
   52299       2   52278   52290       2   52278   52293       2   52275   52284
       2   52272   52275       2   52272   52278       2   52272   52281       2
   52470   52476       2   52467   52476       2   52461   52470       2   52458
   52467       2   52452   52458       2   52449   52458       2   52449   52461
       2   52443   52452       2   52440   52449       2   52428   52440       2
   52425   52440       2   52425   52443       2   52407   52428       2   52404
   52419       2   52404   52425       2   52401   52419       2   52398   52410
       2   52392   52410       2   52389   52404       2   52389   52407       2
   52386   52398       2   52386   52401       2   52383   52392       2   52380
   52383       2   52380   52386       2   52380   52389       2   52578   52584
       2   52575   52584       2   52569   52578       2   52566   52575       2
   52560   52566       2   52557   52566       2   52557   52569       2   52551
   52560       2   52548   52557       2   52536   52548       2   52533   52548
       2   52533   52551       2   52515   52536       2   52512   52527       2
   52512   52533       2   52509   52527       2   52506   52518       2   52500
   52518       2   52497   52512       2   52497   52515       2   52494   52506
       2   52494   52509       2   52491   52500       2   52488   52491       2
   52488   52494       2   52488   52497       2   52686   52692       2   52683
   52692       2   52677   52686       2   52674   52683       2   52668   52674
       2   52665   52674       2   52665   52677       2   52659   52668       2
   52656   52665       2   52644   52656       2   52641   52656       2   52641
   52659       2   52623   52644       2   52620   52635       2   52620   52641
       2   52617   52635       2   52614   52626       2   52608   52626       2
   52605   52620       2   52605   52623       2   52602   52614       2   52602
   52617       2   52599   52608       2   52596   52599       2   52596   52602
       2   52596   52605       2   52794   52800       2   52791   52800       2
   52785   52794       2   52782   52791       2   52776   52782       2   52773
   52782       2   52773   52785       2   52767   52776       2   52764   52773
       2   52752   52764       2   52749   52764       2   52749   52767       2
   52731   52752       2   52728   52743       2   52728   52749       2   52725
   52743       2   52722   52734       2   52716   52734       2   52713   52728
       2   52713   52731       2   52710   52722       2   52710   52725       2
   52707   52716       2   52704   52707       2   52704   52710       2   52704
   52713       2   52902   52908       2   52899   52908       2   52893   52902
       2   52890   52899       2   52884   52890       2   52881   52890       2
   52881   52893       2   52875   52884       2   52872   52881       2   52860
   52872       2   52857   52872       2   52857   52875       2   52839   52860
       2   52836   52851       2   52836   52857       2   52833   52851       2
   52830   52842       2   52824   52842       2   52821   52836       2   52821
   52839       2   52818   52830       2   52818   52833       2   52815   52824
       2   52812   52815       2   52812   52818       2   52812   52821       2
%FLAG ANGLES_INC_HYDROGEN
%FORMAT(10I8)
      96      87      99       1      96      90     102       1      90      81
      93       1      90      96     105       1      87      96     105       1
      81      90     102       1      78      72      84       1      78      87
      99       1      72      63      75       1      69      81      93       1
      63      72      84       1      60      48      66       1      48      27
      51       1      45      63      75       1      39      21      42       1
      30      12      33       1      30      18      36       1      27      48
      66       1      24      39      57       1      21      39      57       1
      18      30      54       1      12       3      15       1      12      30
      54       1       9      27      51       1       6      18      36       1
       6      21      42       1       3      12      33       1       0       3
      15       1     204     195     207       1     204     198     210       1
     198     189     201       1     198     204     213       1     195     204
     213       1     189     198     210       1     186     180     192       1
     186     195     207       1     180     171     183       1     177     189
     201       1     171     180     192       1     168     156     174       1
     156     135     159       1     153     171     183       1     147     129
     150       1     138     120     141       1     138     126     144       1
     135     156     174       1     132     147     165       1     129     147
     165       1     126     138     162       1     120     111     123       1
     120     138     162       1     117     135     159       1     114     126
     144       1     114     129     150       1     111     120     141       1
     108     111     123       1     312     303     315       1     312     306
     318       1     306     297     309       1     306     312     321       1
     303     312     321       1     297     306     318       1     294     288
     300       1     294     303     315       1     288     279     291       1
     285     297     309       1     279     288     300       1     276     264
     282       1     264     243     267       1     261     279     291       1
     255     237     258       1     246     228     249       1     246     234
     252       1     243     264     282       1     240     255     273       1
     237     255     273       1     234     246     270       1     228     219
     231       1     228     246     270       1     225     243     267       1
     222     234     252       1     222     237     258       1     219     228
     249       1     216     219     231       1     420     411     423       1
     420     414     426       1     414     405     417       1     414     420
     429       1     411     420     429       1     405     414     426       1
     402     396     408       1     402     411     423       1     396     387
     399       1     393     405     417       1     387     396     408       1
     384     372     390       1     372     351     375       1     369     387
     399       1     363     345     366       1     354     336     357       1
     354     342     360       1     351     372     390       1     348     363
     381       1     345     363     381       1     342     354     378       1
     336     327     339       1     336     354     378       1     333     351
     375       1     330     342     360       1     330     345     366       1
     327     336     357       1     324     327     339       1     528     519
     531       1     528     522     534       1     522     513     525       1
     522     528     537       1     519     528     537       1     513     522
     534       1     510     504     516       1     510     519     531       1
     504     495     507       1     501     513     525       1     495     504
     516       1     492     480     498       1     480     459     483       1
     477     495     507       1     471     453     474       1     462     444
     465       1     462     450     468       1     459     480     498       1
     456     471     489       1     453     471     489       1     450     462
     486       1     444     435     447       1     444     462     486       1
     441     459     483       1     438     450     468       1     438     453
     474       1     435     444     465       1     432     435     447       1
     636     627     639       1     636     630     642       1     630     621
     633       1     630     636     645       1     627     636     645       1
     621     630     642       1     618     612     624       1     618     627
     639       1     612     603     615       1     609     621     633       1
     603     612     624       1     600     588     606       1     588     567
     591       1     585     603     615       1     579     561     582       1
     570     552     573       1     570     558     576       1     567     588
     606       1     564     579     597       1     561     579     597       1
     558     570     594       1     552     543     555       1     552     570
     594       1     549     567     591       1     546     558     576       1
     546     561     582       1     543     552     573       1     540     543
     555       1     744     735     747       1     744     738     750       1
     738     729     741       1     738     744     753       1     735     744
     753       1     729     738     750       1     726     720     732       1
     726     735     747       1     720     711     723       1     717     729
     741       1     711     720     732       1     708     696     714       1
     696     675     699       1     693     711     723       1     687     669
     690       1     678     660     681       1     678     666     684       1
     675     696     714       1     672     687     705       1     669     687
     705       1     666     678     702       1     660     651     663       1
     660     678     702       1     657     675     699       1     654     666
     684       1     654     669     690       1     651     660     681       1
     648     651     663       1     852     843     855       1     852     846
     858       1     846     837     849       1     846     852     861       1
     843     852     861       1     837     846     858       1     834     828
     840       1     834     843     855       1     828     819     831       1
     825     837     849       1     819     828     840       1     816     804
     822       1     804     783     807       1     801     819     831       1
     795     777     798       1     786     768     789       1     786     774
     792       1     783     804     822       1     780     795     813       1
     777     795     813       1     774     786     810       1     768     759
     771       1     768     786     810       1     765     783     807       1
     762     774     792       1     762     777     798       1     759     768
     789       1     756     759     771       1     960     951     963       1
     960     954     966       1     954     945     957       1     954     960
     969       1     951     960     969       1     945     954     966       1
     942     936     948       1     942     951     963       1     936     927
     939       1     933     945     957       1     927     936     948       1
     924     912     930       1     912     891     915       1     909     927
     939       1     903     885     906       1     894     876     897       1
     894     882     900       1     891     912     930       1     888     903
     921       1     885     903     921       1     882     894     918       1
     876     867     879       1     876     894     918       1     873     891
     915       1     870     882     900       1     870     885     906       1
     867     876     897       1     864     867     879       1    1068    1059
    1071       1    1068    1062    1074       1    1062    1053    1065       1
    1062    1068    1077       1    1059    1068    1077       1    1053    1062
    1074       1    1050    1044    1056       1    1050    1059    1071       1
    1044    1035    1047       1    1041    1053    1065       1    1035    1044
    1056       1    1032    1020    1038       1    1020     999    1023       1
    1017    1035    1047       1    1011     993    1014       1    1002     984
    1005       1    1002     990    1008       1     999    1020    1038       1
     996    1011    1029       1     993    1011    1029       1     990    1002
    1026       1     984     975     987       1     984    1002    1026       1
     981     999    1023       1     978     990    1008       1     978     993
    1014       1     975     984    1005       1     972     975     987       1
    1176    1167    1179       1    1176    1170    1182       1    1170    1161
    1173       1    1170    1176    1185       1    1167    1176    1185       1
    1161    1170    1182       1    1158    1152    1164       1    1158    1167
    1179       1    1152    1143    1155       1    1149    1161    1173       1
    1143    1152    1164       1    1140    1128    1146       1    1128    1107
    1131       1    1125    1143    1155       1    1119    1101    1122       1
    1110    1092    1113       1    1110    1098    1116       1    1107    1128
    1146       1    1104    1119    1137       1    1101    1119    1137       1
    1098    1110    1134       1    1092    1083    1095       1    1092    1110
    1134       1    1089    1107    1131       1    1086    1098    1116       1
    1086    1101    1122       1    1083    1092    1113       1    1080    1083
    1095       1    1284    1275    1287       1    1284    1278    1290       1
    1278    1269    1281       1    1278    1284    1293       1    1275    1284
    1293       1    1269    1278    1290       1    1266    1260    1272       1
    1266    1275    1287       1    1260    1251    1263       1    1257    1269
    1281       1    1251    1260    1272       1    1248    1236    1254       1
    1236    1215    1239       1    1233    1251    1263       1    1227    1209
    1230       1    1218    1200    1221       1    1218    1206    1224       1
    1215    1236    1254       1    1212    1227    1245       1    1209    1227
    1245       1    1206    1218    1242       1    1200    1191    1203       1
    1200    1218    1242       1    1197    1215    1239       1    1194    1206
    1224       1    1194    1209    1230       1    1191    1200    1221       1
    1188    1191    1203       1    1392    1383    1395       1    1392    1386
    1398       1    1386    1377    1389       1    1386    1392    1401       1
    1383    1392    1401       1    1377    1386    1398       1    1374    1368
    1380       1    1374    1383    1395       1    1368    1359    1371       1
    1365    1377    1389       1    1359    1368    1380       1    1356    1344
    1362       1    1344    1323    1347       1    1341    1359    1371       1
    1335    1317    1338       1    1326    1308    1329       1    1326    1314
    1332       1    1323    1344    1362       1    1320    1335    1353       1
    1317    1335    1353       1    1314    1326    1350       1    1308    1299
    1311       1    1308    1326    1350       1    1305    1323    1347       1
    1302    1314    1332       1    1302    1317    1338       1    1299    1308
    1329       1    1296    1299    1311       1    1500    1491    1503       1
    1500    1494    1506       1    1494    1485    1497       1    1494    1500
    1509       1    1491    1500    1509       1    1485    1494    1506       1
    1482    1476    1488       1    1482    1491    1503       1    1476    1467
    1479       1    1473    1485    1497       1    1467    1476    1488       1
    1464    1452    1470       1    1452    1431    1455       1    1449    1467
    1479       1    1443    1425    1446       1    1434    1416    1437       1
    1434    1422    1440       1    1431    1452    1470       1    1428    1443
    1461       1    1425    1443    1461       1    1422    1434    1458       1
    1416    1407    1419       1    1416    1434    1458       1    1413    1431
    1455       1    1410    1422    1440       1    1410    1425    1446       1
    1407    1416    1437       1    1404    1407    1419       1    1608    1599
    1611       1    1608    1602    1614       1    1602    1593    1605       1
    1602    1608    1617       1    1599    1608    1617       1    1593    1602
    1614       1    1590    1584    1596       1    1590    1599    1611       1
    1584    1575    1587       1    1581    1593    1605       1    1575    1584
    1596       1    1572    1560    1578       1    1560    1539    1563       1
    1557    1575    1587       1    1551    1533    1554       1    1542    1524
    1545       1    1542    1530    1548       1    1539    1560    1578       1
    1536    1551    1569       1    1533    1551    1569       1    1530    1542
    1566       1    1524    1515    1527       1    1524    1542    1566       1
    1521    1539    1563       1    1518    1530    1548       1    1518    1533
    1554       1    1515    1524    1545       1    1512    1515    1527       1
    1716    1707    1719       1    1716    1710    1722       1    1710    1701
    1713       1    1710    1716    1725       1    1707    1716    1725       1
    1701    1710    1722       1    1698    1692    1704       1    1698    1707
    1719       1    1692    1683    1695       1    1689    1701    1713       1
    1683    1692    1704       1    1680    1668    1686       1    1668    1647
    1671       1    1665    1683    1695       1    1659    1641    1662       1
    1650    1632    1653       1    1650    1638    1656       1    1647    1668
    1686       1    1644    1659    1677       1    1641    1659    1677       1
    1638    1650    1674       1    1632    1623    1635       1    1632    1650
    1674       1    1629    1647    1671       1    1626    1638    1656       1
    1626    1641    1662       1    1623    1632    1653       1    1620    1623
    1635       1    1824    1815    1827       1    1824    1818    1830       1
    1818    1809    1821       1    1818    1824    1833       1    1815    1824
    1833       1    1809    1818    1830       1    1806    1800    1812       1
    1806    1815    1827       1    1800    1791    1803       1    1797    1809
    1821       1    1791    1800    1812       1    1788    1776    1794       1
    1776    1755    1779       1    1773    1791    1803       1    1767    1749
    1770       1    1758    1740    1761       1    1758    1746    1764       1
    1755    1776    1794       1    1752    1767    1785       1    1749    1767
    1785       1    1746    1758    1782       1    1740    1731    1743       1
    1740    1758    1782       1    1737    1755    1779       1    1734    1746
    1764       1    1734    1749    1770       1    1731    1740    1761       1
    1728    1731    1743       1    1932    1923    1935       1    1932    1926
    1938       1    1926    1917    1929       1    1926    1932    1941       1
    1923    1932    1941       1    1917    1926    1938       1    1914    1908
    1920       1    1914    1923    1935       1    1908    1899    1911       1
    1905    1917    1929       1    1899    1908    1920       1    1896    1884
    1902       1    1884    1863    1887       1    1881    1899    1911       1
    1875    1857    1878       1    1866    1848    1869       1    1866    1854
    1872       1    1863    1884    1902       1    1860    1875    1893       1
    1857    1875    1893       1    1854    1866    1890       1    1848    1839
    1851       1    1848    1866    1890       1    1845    1863    1887       1
    1842    1854    1872       1    1842    1857    1878       1    1839    1848
    1869       1    1836    1839    1851       1    2040    2031    2043       1
    2040    2034    2046       1    2034    2025    2037       1    2034    2040
    2049       1    2031    2040    2049       1    2025    2034    2046       1
    2022    2016    2028       1    2022    2031    2043       1    2016    2007
    2019       1    2013    2025    2037       1    2007    2016    2028       1
    2004    1992    2010       1    1992    1971    1995       1    1989    2007
    2019       1    1983    1965    1986       1    1974    1956    1977       1
    1974    1962    1980       1    1971    1992    2010       1    1968    1983
    2001       1    1965    1983    2001       1    1962    1974    1998       1
    1956    1947    1959       1    1956    1974    1998       1    1953    1971
    1995       1    1950    1962    1980       1    1950    1965    1986       1
    1947    1956    1977       1    1944    1947    1959       1    2148    2139
    2151       1    2148    2142    2154       1    2142    2133    2145       1
    2142    2148    2157       1    2139    2148    2157       1    2133    2142
    2154       1    2130    2124    2136       1    2130    2139    2151       1
    2124    2115    2127       1    2121    2133    2145       1    2115    2124
    2136       1    2112    2100    2118       1    2100    2079    2103       1
    2097    2115    2127       1    2091    2073    2094       1    2082    2064
    2085       1    2082    2070    2088       1    2079    2100    2118       1
    2076    2091    2109       1    2073    2091    2109       1    2070    2082
    2106       1    2064    2055    2067       1    2064    2082    2106       1
    2061    2079    2103       1    2058    2070    2088       1    2058    2073
    2094       1    2055    2064    2085       1    2052    2055    2067       1
    2256    2247    2259       1    2256    2250    2262       1    2250    2241
    2253       1    2250    2256    2265       1    2247    2256    2265       1
    2241    2250    2262       1    2238    2232    2244       1    2238    2247
    2259       1    2232    2223    2235       1    2229    2241    2253       1
    2223    2232    2244       1    2220    2208    2226       1    2208    2187
    2211       1    2205    2223    2235       1    2199    2181    2202       1
    2190    2172    2193       1    2190    2178    2196       1    2187    2208
    2226       1    2184    2199    2217       1    2181    2199    2217       1
    2178    2190    2214       1    2172    2163    2175       1    2172    2190
    2214       1    2169    2187    2211       1    2166    2178    2196       1
    2166    2181    2202       1    2163    2172    2193       1    2160    2163
    2175       1    2364    2355    2367       1    2364    2358    2370       1
    2358    2349    2361       1    2358    2364    2373       1    2355    2364
    2373       1    2349    2358    2370       1    2346    2340    2352       1
    2346    2355    2367       1    2340    2331    2343       1    2337    2349
    2361       1    2331    2340    2352       1    2328    2316    2334       1
    2316    2295    2319       1    2313    2331    2343       1    2307    2289
    2310       1    2298    2280    2301       1    2298    2286    2304       1
    2295    2316    2334       1    2292    2307    2325       1    2289    2307
    2325       1    2286    2298    2322       1    2280    2271    2283       1
    2280    2298    2322       1    2277    2295    2319       1    2274    2286
    2304       1    2274    2289    2310       1    2271    2280    2301       1
    2268    2271    2283       1    2472    2463    2475       1    2472    2466
    2478       1    2466    2457    2469       1    2466    2472    2481       1
    2463    2472    2481       1    2457    2466    2478       1    2454    2448
    2460       1    2454    2463    2475       1    2448    2439    2451       1
    2445    2457    2469       1    2439    2448    2460       1    2436    2424
    2442       1    2424    2403    2427       1    2421    2439    2451       1
    2415    2397    2418       1    2406    2388    2409       1    2406    2394
    2412       1    2403    2424    2442       1    2400    2415    2433       1
    2397    2415    2433       1    2394    2406    2430       1    2388    2379
    2391       1    2388    2406    2430       1    2385    2403    2427       1
    2382    2394    2412       1    2382    2397    2418       1    2379    2388
    2409       1    2376    2379    2391       1    2580    2571    2583       1
    2580    2574    2586       1    2574    2565    2577       1    2574    2580
    2589       1    2571    2580    2589       1    2565    2574    2586       1
    2562    2556    2568       1    2562    2571    2583       1    2556    2547
    2559       1    2553    2565    2577       1    2547    2556    2568       1
    2544    2532    2550       1    2532    2511    2535       1    2529    2547
    2559       1    2523    2505    2526       1    2514    2496    2517       1
    2514    2502    2520       1    2511    2532    2550       1    2508    2523
    2541       1    2505    2523    2541       1    2502    2514    2538       1
    2496    2487    2499       1    2496    2514    2538       1    2493    2511
    2535       1    2490    2502    2520       1    2490    2505    2526       1
    2487    2496    2517       1    2484    2487    2499       1    2688    2679
    2691       1    2688    2682    2694       1    2682    2673    2685       1
    2682    2688    2697       1    2679    2688    2697       1    2673    2682
    2694       1    2670    2664    2676       1    2670    2679    2691       1
    2664    2655    2667       1    2661    2673    2685       1    2655    2664
    2676       1    2652    2640    2658       1    2640    2619    2643       1
    2637    2655    2667       1    2631    2613    2634       1    2622    2604
    2625       1    2622    2610    2628       1    2619    2640    2658       1
    2616    2631    2649       1    2613    2631    2649       1    2610    2622
    2646       1    2604    2595    2607       1    2604    2622    2646       1
    2601    2619    2643       1    2598    2610    2628       1    2598    2613
    2634       1    2595    2604    2625       1    2592    2595    2607       1
    2796    2787    2799       1    2796    2790    2802       1    2790    2781
    2793       1    2790    2796    2805       1    2787    2796    2805       1
    2781    2790    2802       1    2778    2772    2784       1    2778    2787
    2799       1    2772    2763    2775       1    2769    2781    2793       1
    2763    2772    2784       1    2760    2748    2766       1    2748    2727
    2751       1    2745    2763    2775       1    2739    2721    2742       1
    2730    2712    2733       1    2730    2718    2736       1    2727    2748
    2766       1    2724    2739    2757       1    2721    2739    2757       1
    2718    2730    2754       1    2712    2703    2715       1    2712    2730
    2754       1    2709    2727    2751       1    2706    2718    2736       1
    2706    2721    2742       1    2703    2712    2733       1    2700    2703
    2715       1    2904    2895    2907       1    2904    2898    2910       1
    2898    2889    2901       1    2898    2904    2913       1    2895    2904
    2913       1    2889    2898    2910       1    2886    2880    2892       1
    2886    2895    2907       1    2880    2871    2883       1    2877    2889
    2901       1    2871    2880    2892       1    2868    2856    2874       1
    2856    2835    2859       1    2853    2871    2883       1    2847    2829
    2850       1    2838    2820    2841       1    2838    2826    2844       1
    2835    2856    2874       1    2832    2847    2865       1    2829    2847
    2865       1    2826    2838    2862       1    2820    2811    2823       1
    2820    2838    2862       1    2817    2835    2859       1    2814    2826
    2844       1    2814    2829    2850       1    2811    2820    2841       1
    2808    2811    2823       1    3012    3003    3015       1    3012    3006
    3018       1    3006    2997    3009       1    3006    3012    3021       1
    3003    3012    3021       1    2997    3006    3018       1    2994    2988
    3000       1    2994    3003    3015       1    2988    2979    2991       1
    2985    2997    3009       1    2979    2988    3000       1    2976    2964
    2982       1    2964    2943    2967       1    2961    2979    2991       1
    2955    2937    2958       1    2946    2928    2949       1    2946    2934
    2952       1    2943    2964    2982       1    2940    2955    2973       1
    2937    2955    2973       1    2934    2946    2970       1    2928    2919
    2931       1    2928    2946    2970       1    2925    2943    2967       1
    2922    2934    2952       1    2922    2937    2958       1    2919    2928
    2949       1    2916    2919    2931       1    3120    3111    3123       1
    3120    3114    3126       1    3114    3105    3117       1    3114    3120
    3129       1    3111    3120    3129       1    3105    3114    3126       1
    3102    3096    3108       1    3102    3111    3123       1    3096    3087
    3099       1    3093    3105    3117       1    3087    3096    3108       1
    3084    3072    3090       1    3072    3051    3075       1    3069    3087
    3099       1    3063    3045    3066       1    3054    3036    3057       1
    3054    3042    3060       1    3051    3072    3090       1    3048    3063
    3081       1    3045    3063    3081       1    3042    3054    3078       1
    3036    3027    3039       1    3036    3054    3078       1    3033    3051
    3075       1    3030    3042    3060       1    3030    3045    3066       1
    3027    3036    3057       1    3024    3027    3039       1    3228    3219
    3231       1    3228    3222    3234       1    3222    3213    3225       1
    3222    3228    3237       1    3219    3228    3237       1    3213    3222
    3234       1    3210    3204    3216       1    3210    3219    3231       1
    3204    3195    3207       1    3201    3213    3225       1    3195    3204
    3216       1    3192    3180    3198       1    3180    3159    3183       1
    3177    3195    3207       1    3171    3153    3174       1    3162    3144
    3165       1    3162    3150    3168       1    3159    3180    3198       1
    3156    3171    3189       1    3153    3171    3189       1    3150    3162
    3186       1    3144    3135    3147       1    3144    3162    3186       1
    3141    3159    3183       1    3138    3150    3168       1    3138    3153
    3174       1    3135    3144    3165       1    3132    3135    3147       1
    3336    3327    3339       1    3336    3330    3342       1    3330    3321
    3333       1    3330    3336    3345       1    3327    3336    3345       1
    3321    3330    3342       1    3318    3312    3324       1    3318    3327
    3339       1    3312    3303    3315       1    3309    3321    3333       1
    3303    3312    3324       1    3300    3288    3306       1    3288    3267
    3291       1    3285    3303    3315       1    3279    3261    3282       1
    3270    3252    3273       1    3270    3258    3276       1    3267    3288
    3306       1    3264    3279    3297       1    3261    3279    3297       1
    3258    3270    3294       1    3252    3243    3255       1    3252    3270
    3294       1    3249    3267    3291       1    3246    3258    3276       1
    3246    3261    3282       1    3243    3252    3273       1    3240    3243
    3255       1    3444    3435    3447       1    3444    3438    3450       1
    3438    3429    3441       1    3438    3444    3453       1    3435    3444
    3453       1    3429    3438    3450       1    3426    3420    3432       1
    3426    3435    3447       1    3420    3411    3423       1    3417    3429
    3441       1    3411    3420    3432       1    3408    3396    3414       1
    3396    3375    3399       1    3393    3411    3423       1    3387    3369
    3390       1    3378    3360    3381       1    3378    3366    3384       1
    3375    3396    3414       1    3372    3387    3405       1    3369    3387
    3405       1    3366    3378    3402       1    3360    3351    3363       1
    3360    3378    3402       1    3357    3375    3399       1    3354    3366
    3384       1    3354    3369    3390       1    3351    3360    3381       1
    3348    3351    3363       1    3552    3543    3555       1    3552    3546
    3558       1    3546    3537    3549       1    3546    3552    3561       1
    3543    3552    3561       1    3537    3546    3558       1    3534    3528
    3540       1    3534    3543    3555       1    3528    3519    3531       1
    3525    3537    3549       1    3519    3528    3540       1    3516    3504
    3522       1    3504    3483    3507       1    3501    3519    3531       1
    3495    3477    3498       1    3486    3468    3489       1    3486    3474
    3492       1    3483    3504    3522       1    3480    3495    3513       1
    3477    3495    3513       1    3474    3486    3510       1    3468    3459
    3471       1    3468    3486    3510       1    3465    3483    3507       1
    3462    3474    3492       1    3462    3477    3498       1    3459    3468
    3489       1    3456    3459    3471       1    3660    3651    3663       1
    3660    3654    3666       1    3654    3645    3657       1    3654    3660
    3669       1    3651    3660    3669       1    3645    3654    3666       1
    3642    3636    3648       1    3642    3651    3663       1    3636    3627
    3639       1    3633    3645    3657       1    3627    3636    3648       1
    3624    3612    3630       1    3612    3591    3615       1    3609    3627
    3639       1    3603    3585    3606       1    3594    3576    3597       1
    3594    3582    3600       1    3591    3612    3630       1    3588    3603
    3621       1    3585    3603    3621       1    3582    3594    3618       1
    3576    3567    3579       1    3576    3594    3618       1    3573    3591
    3615       1    3570    3582    3600       1    3570    3585    3606       1
    3567    3576    3597       1    3564    3567    3579       1    3768    3759
    3771       1    3768    3762    3774       1    3762    3753    3765       1
    3762    3768    3777       1    3759    3768    3777       1    3753    3762
    3774       1    3750    3744    3756       1    3750    3759    3771       1
    3744    3735    3747       1    3741    3753    3765       1    3735    3744
    3756       1    3732    3720    3738       1    3720    3699    3723       1
    3717    3735    3747       1    3711    3693    3714       1    3702    3684
    3705       1    3702    3690    3708       1    3699    3720    3738       1
    3696    3711    3729       1    3693    3711    3729       1    3690    3702
    3726       1    3684    3675    3687       1    3684    3702    3726       1
    3681    3699    3723       1    3678    3690    3708       1    3678    3693
    3714       1    3675    3684    3705       1    3672    3675    3687       1
    3876    3867    3879       1    3876    3870    3882       1    3870    3861
    3873       1    3870    3876    3885       1    3867    3876    3885       1
    3861    3870    3882       1    3858    3852    3864       1    3858    3867
    3879       1    3852    3843    3855       1    3849    3861    3873       1
    3843    3852    3864       1    3840    3828    3846       1    3828    3807
    3831       1    3825    3843    3855       1    3819    3801    3822       1
    3810    3792    3813       1    3810    3798    3816       1    3807    3828
    3846       1    3804    3819    3837       1    3801    3819    3837       1
    3798    3810    3834       1    3792    3783    3795       1    3792    3810
    3834       1    3789    3807    3831       1    3786    3798    3816       1
    3786    3801    3822       1    3783    3792    3813       1    3780    3783
    3795       1    3984    3975    3987       1    3984    3978    3990       1
    3978    3969    3981       1    3978    3984    3993       1    3975    3984
    3993       1    3969    3978    3990       1    3966    3960    3972       1
    3966    3975    3987       1    3960    3951    3963       1    3957    3969
    3981       1    3951    3960    3972       1    3948    3936    3954       1
    3936    3915    3939       1    3933    3951    3963       1    3927    3909
    3930       1    3918    3900    3921       1    3918    3906    3924       1
    3915    3936    3954       1    3912    3927    3945       1    3909    3927
    3945       1    3906    3918    3942       1    3900    3891    3903       1
    3900    3918    3942       1    3897    3915    3939       1    3894    3906
    3924       1    3894    3909    3930       1    3891    3900    3921       1
    3888    3891    3903       1    4092    4083    4095       1    4092    4086
    4098       1    4086    4077    4089       1    4086    4092    4101       1
    4083    4092    4101       1    4077    4086    4098       1    4074    4068
    4080       1    4074    4083    4095       1    4068    4059    4071       1
    4065    4077    4089       1    4059    4068    4080       1    4056    4044
    4062       1    4044    4023    4047       1    4041    4059    4071       1
    4035    4017    4038       1    4026    4008    4029       1    4026    4014
    4032       1    4023    4044    4062       1    4020    4035    4053       1
    4017    4035    4053       1    4014    4026    4050       1    4008    3999
    4011       1    4008    4026    4050       1    4005    4023    4047       1
    4002    4014    4032       1    4002    4017    4038       1    3999    4008
    4029       1    3996    3999    4011       1    4200    4191    4203       1
    4200    4194    4206       1    4194    4185    4197       1    4194    4200
    4209       1    4191    4200    4209       1    4185    4194    4206       1
    4182    4176    4188       1    4182    4191    4203       1    4176    4167
    4179       1    4173    4185    4197       1    4167    4176    4188       1
    4164    4152    4170       1    4152    4131    4155       1    4149    4167
    4179       1    4143    4125    4146       1    4134    4116    4137       1
    4134    4122    4140       1    4131    4152    4170       1    4128    4143
    4161       1    4125    4143    4161       1    4122    4134    4158       1
    4116    4107    4119       1    4116    4134    4158       1    4113    4131
    4155       1    4110    4122    4140       1    4110    4125    4146       1
    4107    4116    4137       1    4104    4107    4119       1    4308    4299
    4311       1    4308    4302    4314       1    4302    4293    4305       1
    4302    4308    4317       1    4299    4308    4317       1    4293    4302
    4314       1    4290    4284    4296       1    4290    4299    4311       1
    4284    4275    4287       1    4281    4293    4305       1    4275    4284
    4296       1    4272    4260    4278       1    4260    4239    4263       1
    4257    4275    4287       1    4251    4233    4254       1    4242    4224
    4245       1    4242    4230    4248       1    4239    4260    4278       1
    4236    4251    4269       1    4233    4251    4269       1    4230    4242
    4266       1    4224    4215    4227       1    4224    4242    4266       1
    4221    4239    4263       1    4218    4230    4248       1    4218    4233
    4254       1    4215    4224    4245       1    4212    4215    4227       1
    4416    4407    4419       1    4416    4410    4422       1    4410    4401
    4413       1    4410    4416    4425       1    4407    4416    4425       1
    4401    4410    4422       1    4398    4392    4404       1    4398    4407
    4419       1    4392    4383    4395       1    4389    4401    4413       1
    4383    4392    4404       1    4380    4368    4386       1    4368    4347
    4371       1    4365    4383    4395       1    4359    4341    4362       1
    4350    4332    4353       1    4350    4338    4356       1    4347    4368
    4386       1    4344    4359    4377       1    4341    4359    4377       1
    4338    4350    4374       1    4332    4323    4335       1    4332    4350
    4374       1    4329    4347    4371       1    4326    4338    4356       1
    4326    4341    4362       1    4323    4332    4353       1    4320    4323
    4335       1    4524    4515    4527       1    4524    4518    4530       1
    4518    4509    4521       1    4518    4524    4533       1    4515    4524
    4533       1    4509    4518    4530       1    4506    4500    4512       1
    4506    4515    4527       1    4500    4491    4503       1    4497    4509
    4521       1    4491    4500    4512       1    4488    4476    4494       1
    4476    4455    4479       1    4473    4491    4503       1    4467    4449
    4470       1    4458    4440    4461       1    4458    4446    4464       1
    4455    4476    4494       1    4452    4467    4485       1    4449    4467
    4485       1    4446    4458    4482       1    4440    4431    4443       1
    4440    4458    4482       1    4437    4455    4479       1    4434    4446
    4464       1    4434    4449    4470       1    4431    4440    4461       1
    4428    4431    4443       1    4632    4623    4635       1    4632    4626
    4638       1    4626    4617    4629       1    4626    4632    4641       1
    4623    4632    4641       1    4617    4626    4638       1    4614    4608
    4620       1    4614    4623    4635       1    4608    4599    4611       1
    4605    4617    4629       1    4599    4608    4620       1    4596    4584
    4602       1    4584    4563    4587       1    4581    4599    4611       1
    4575    4557    4578       1    4566    4548    4569       1    4566    4554
    4572       1    4563    4584    4602       1    4560    4575    4593       1
    4557    4575    4593       1    4554    4566    4590       1    4548    4539
    4551       1    4548    4566    4590       1    4545    4563    4587       1
    4542    4554    4572       1    4542    4557    4578       1    4539    4548
    4569       1    4536    4539    4551       1    4740    4731    4743       1
    4740    4734    4746       1    4734    4725    4737       1    4734    4740
    4749       1    4731    4740    4749       1    4725    4734    4746       1
    4722    4716    4728       1    4722    4731    4743       1    4716    4707
    4719       1    4713    4725    4737       1    4707    4716    4728       1
    4704    4692    4710       1    4692    4671    4695       1    4689    4707
    4719       1    4683    4665    4686       1    4674    4656    4677       1
    4674    4662    4680       1    4671    4692    4710       1    4668    4683
    4701       1    4665    4683    4701       1    4662    4674    4698       1
    4656    4647    4659       1    4656    4674    4698       1    4653    4671
    4695       1    4650    4662    4680       1    4650    4665    4686       1
    4647    4656    4677       1    4644    4647    4659       1    4848    4839
    4851       1    4848    4842    4854       1    4842    4833    4845       1
    4842    4848    4857       1    4839    4848    4857       1    4833    4842
    4854       1    4830    4824    4836       1    4830    4839    4851       1
    4824    4815    4827       1    4821    4833    4845       1    4815    4824
    4836       1    4812    4800    4818       1    4800    4779    4803       1
    4797    4815    4827       1    4791    4773    4794       1    4782    4764
    4785       1    4782    4770    4788       1    4779    4800    4818       1
    4776    4791    4809       1    4773    4791    4809       1    4770    4782
    4806       1    4764    4755    4767       1    4764    4782    4806       1
    4761    4779    4803       1    4758    4770    4788       1    4758    4773
    4794       1    4755    4764    4785       1    4752    4755    4767       1
    4956    4947    4959       1    4956    4950    4962       1    4950    4941
    4953       1    4950    4956    4965       1    4947    4956    4965       1
    4941    4950    4962       1    4938    4932    4944       1    4938    4947
    4959       1    4932    4923    4935       1    4929    4941    4953       1
    4923    4932    4944       1    4920    4908    4926       1    4908    4887
    4911       1    4905    4923    4935       1    4899    4881    4902       1
    4890    4872    4893       1    4890    4878    4896       1    4887    4908
    4926       1    4884    4899    4917       1    4881    4899    4917       1
    4878    4890    4914       1    4872    4863    4875       1    4872    4890
    4914       1    4869    4887    4911       1    4866    4878    4896       1
    4866    4881    4902       1    4863    4872    4893       1    4860    4863
    4875       1    5064    5055    5067       1    5064    5058    5070       1
    5058    5049    5061       1    5058    5064    5073       1    5055    5064
    5073       1    5049    5058    5070       1    5046    5040    5052       1
    5046    5055    5067       1    5040    5031    5043       1    5037    5049
    5061       1    5031    5040    5052       1    5028    5016    5034       1
    5016    4995    5019       1    5013    5031    5043       1    5007    4989
    5010       1    4998    4980    5001       1    4998    4986    5004       1
    4995    5016    5034       1    4992    5007    5025       1    4989    5007
    5025       1    4986    4998    5022       1    4980    4971    4983       1
    4980    4998    5022       1    4977    4995    5019       1    4974    4986
    5004       1    4974    4989    5010       1    4971    4980    5001       1
    4968    4971    4983       1    5172    5163    5175       1    5172    5166
    5178       1    5166    5157    5169       1    5166    5172    5181       1
    5163    5172    5181       1    5157    5166    5178       1    5154    5148
    5160       1    5154    5163    5175       1    5148    5139    5151       1
    5145    5157    5169       1    5139    5148    5160       1    5136    5124
    5142       1    5124    5103    5127       1    5121    5139    5151       1
    5115    5097    5118       1    5106    5088    5109       1    5106    5094
    5112       1    5103    5124    5142       1    5100    5115    5133       1
    5097    5115    5133       1    5094    5106    5130       1    5088    5079
    5091       1    5088    5106    5130       1    5085    5103    5127       1
    5082    5094    5112       1    5082    5097    5118       1    5079    5088
    5109       1    5076    5079    5091       1    5280    5271    5283       1
    5280    5274    5286       1    5274    5265    5277       1    5274    5280
    5289       1    5271    5280    5289       1    5265    5274    5286       1
    5262    5256    5268       1    5262    5271    5283       1    5256    5247
    5259       1    5253    5265    5277       1    5247    5256    5268       1
    5244    5232    5250       1    5232    5211    5235       1    5229    5247
    5259       1    5223    5205    5226       1    5214    5196    5217       1
    5214    5202    5220       1    5211    5232    5250       1    5208    5223
    5241       1    5205    5223    5241       1    5202    5214    5238       1
    5196    5187    5199       1    5196    5214    5238       1    5193    5211
    5235       1    5190    5202    5220       1    5190    5205    5226       1
    5187    5196    5217       1    5184    5187    5199       1    5388    5379
    5391       1    5388    5382    5394       1    5382    5373    5385       1
    5382    5388    5397       1    5379    5388    5397       1    5373    5382
    5394       1    5370    5364    5376       1    5370    5379    5391       1
    5364    5355    5367       1    5361    5373    5385       1    5355    5364
    5376       1    5352    5340    5358       1    5340    5319    5343       1
    5337    5355    5367       1    5331    5313    5334       1    5322    5304
    5325       1    5322    5310    5328       1    5319    5340    5358       1
    5316    5331    5349       1    5313    5331    5349       1    5310    5322
    5346       1    5304    5295    5307       1    5304    5322    5346       1
    5301    5319    5343       1    5298    5310    5328       1    5298    5313
    5334       1    5295    5304    5325       1    5292    5295    5307       1
    5496    5487    5499       1    5496    5490    5502       1    5490    5481
    5493       1    5490    5496    5505       1    5487    5496    5505       1
    5481    5490    5502       1    5478    5472    5484       1    5478    5487
    5499       1    5472    5463    5475       1    5469    5481    5493       1
    5463    5472    5484       1    5460    5448    5466       1    5448    5427
    5451       1    5445    5463    5475       1    5439    5421    5442       1
    5430    5412    5433       1    5430    5418    5436       1    5427    5448
    5466       1    5424    5439    5457       1    5421    5439    5457       1
    5418    5430    5454       1    5412    5403    5415       1    5412    5430
    5454       1    5409    5427    5451       1    5406    5418    5436       1
    5406    5421    5442       1    5403    5412    5433       1    5400    5403
    5415       1    5604    5595    5607       1    5604    5598    5610       1
    5598    5589    5601       1    5598    5604    5613       1    5595    5604
    5613       1    5589    5598    5610       1    5586    5580    5592       1
    5586    5595    5607       1    5580    5571    5583       1    5577    5589
    5601       1    5571    5580    5592       1    5568    5556    5574       1
    5556    5535    5559       1    5553    5571    5583       1    5547    5529
    5550       1    5538    5520    5541       1    5538    5526    5544       1
    5535    5556    5574       1    5532    5547    5565       1    5529    5547
    5565       1    5526    5538    5562       1    5520    5511    5523       1
    5520    5538    5562       1    5517    5535    5559       1    5514    5526
    5544       1    5514    5529    5550       1    5511    5520    5541       1
    5508    5511    5523       1    5712    5703    5715       1    5712    5706
    5718       1    5706    5697    5709       1    5706    5712    5721       1
    5703    5712    5721       1    5697    5706    5718       1    5694    5688
    5700       1    5694    5703    5715       1    5688    5679    5691       1
    5685    5697    5709       1    5679    5688    5700       1    5676    5664
    5682       1    5664    5643    5667       1    5661    5679    5691       1
    5655    5637    5658       1    5646    5628    5649       1    5646    5634
    5652       1    5643    5664    5682       1    5640    5655    5673       1
    5637    5655    5673       1    5634    5646    5670       1    5628    5619
    5631       1    5628    5646    5670       1    5625    5643    5667       1
    5622    5634    5652       1    5622    5637    5658       1    5619    5628
    5649       1    5616    5619    5631       1    5820    5811    5823       1
    5820    5814    5826       1    5814    5805    5817       1    5814    5820
    5829       1    5811    5820    5829       1    5805    5814    5826       1
    5802    5796    5808       1    5802    5811    5823       1    5796    5787
    5799       1    5793    5805    5817       1    5787    5796    5808       1
    5784    5772    5790       1    5772    5751    5775       1    5769    5787
    5799       1    5763    5745    5766       1    5754    5736    5757       1
    5754    5742    5760       1    5751    5772    5790       1    5748    5763
    5781       1    5745    5763    5781       1    5742    5754    5778       1
    5736    5727    5739       1    5736    5754    5778       1    5733    5751
    5775       1    5730    5742    5760       1    5730    5745    5766       1
    5727    5736    5757       1    5724    5727    5739       1    5928    5919
    5931       1    5928    5922    5934       1    5922    5913    5925       1
    5922    5928    5937       1    5919    5928    5937       1    5913    5922
    5934       1    5910    5904    5916       1    5910    5919    5931       1
    5904    5895    5907       1    5901    5913    5925       1    5895    5904
    5916       1    5892    5880    5898       1    5880    5859    5883       1
    5877    5895    5907       1    5871    5853    5874       1    5862    5844
    5865       1    5862    5850    5868       1    5859    5880    5898       1
    5856    5871    5889       1    5853    5871    5889       1    5850    5862
    5886       1    5844    5835    5847       1    5844    5862    5886       1
    5841    5859    5883       1    5838    5850    5868       1    5838    5853
    5874       1    5835    5844    5865       1    5832    5835    5847       1
    6036    6027    6039       1    6036    6030    6042       1    6030    6021
    6033       1    6030    6036    6045       1    6027    6036    6045       1
    6021    6030    6042       1    6018    6012    6024       1    6018    6027
    6039       1    6012    6003    6015       1    6009    6021    6033       1
    6003    6012    6024       1    6000    5988    6006       1    5988    5967
    5991       1    5985    6003    6015       1    5979    5961    5982       1
    5970    5952    5973       1    5970    5958    5976       1    5967    5988
    6006       1    5964    5979    5997       1    5961    5979    5997       1
    5958    5970    5994       1    5952    5943    5955       1    5952    5970
    5994       1    5949    5967    5991       1    5946    5958    5976       1
    5946    5961    5982       1    5943    5952    5973       1    5940    5943
    5955       1    6144    6135    6147       1    6144    6138    6150       1
    6138    6129    6141       1    6138    6144    6153       1    6135    6144
    6153       1    6129    6138    6150       1    6126    6120    6132       1
    6126    6135    6147       1    6120    6111    6123       1    6117    6129
    6141       1    6111    6120    6132       1    6108    6096    6114       1
    6096    6075    6099       1    6093    6111    6123       1    6087    6069
    6090       1    6078    6060    6081       1    6078    6066    6084       1
    6075    6096    6114       1    6072    6087    6105       1    6069    6087
    6105       1    6066    6078    6102       1    6060    6051    6063       1
    6060    6078    6102       1    6057    6075    6099       1    6054    6066
    6084       1    6054    6069    6090       1    6051    6060    6081       1
    6048    6051    6063       1    6252    6243    6255       1    6252    6246
    6258       1    6246    6237    6249       1    6246    6252    6261       1
    6243    6252    6261       1    6237    6246    6258       1    6234    6228
    6240       1    6234    6243    6255       1    6228    6219    6231       1
    6225    6237    6249       1    6219    6228    6240       1    6216    6204
    6222       1    6204    6183    6207       1    6201    6219    6231       1
    6195    6177    6198       1    6186    6168    6189       1    6186    6174
    6192       1    6183    6204    6222       1    6180    6195    6213       1
    6177    6195    6213       1    6174    6186    6210       1    6168    6159
    6171       1    6168    6186    6210       1    6165    6183    6207       1
    6162    6174    6192       1    6162    6177    6198       1    6159    6168
    6189       1    6156    6159    6171       1    6360    6351    6363       1
    6360    6354    6366       1    6354    6345    6357       1    6354    6360
    6369       1    6351    6360    6369       1    6345    6354    6366       1
    6342    6336    6348       1    6342    6351    6363       1    6336    6327
    6339       1    6333    6345    6357       1    6327    6336    6348       1
    6324    6312    6330       1    6312    6291    6315       1    6309    6327
    6339       1    6303    6285    6306       1    6294    6276    6297       1
    6294    6282    6300       1    6291    6312    6330       1    6288    6303
    6321       1    6285    6303    6321       1    6282    6294    6318       1
    6276    6267    6279       1    6276    6294    6318       1    6273    6291
    6315       1    6270    6282    6300       1    6270    6285    6306       1
    6267    6276    6297       1    6264    6267    6279       1    6468    6459
    6471       1    6468    6462    6474       1    6462    6453    6465       1
    6462    6468    6477       1    6459    6468    6477       1    6453    6462
    6474       1    6450    6444    6456       1    6450    6459    6471       1
    6444    6435    6447       1    6441    6453    6465       1    6435    6444
    6456       1    6432    6420    6438       1    6420    6399    6423       1
    6417    6435    6447       1    6411    6393    6414       1    6402    6384
    6405       1    6402    6390    6408       1    6399    6420    6438       1
    6396    6411    6429       1    6393    6411    6429       1    6390    6402
    6426       1    6384    6375    6387       1    6384    6402    6426       1
    6381    6399    6423       1    6378    6390    6408       1    6378    6393
    6414       1    6375    6384    6405       1    6372    6375    6387       1
    6576    6567    6579       1    6576    6570    6582       1    6570    6561
    6573       1    6570    6576    6585       1    6567    6576    6585       1
    6561    6570    6582       1    6558    6552    6564       1    6558    6567
    6579       1    6552    6543    6555       1    6549    6561    6573       1
    6543    6552    6564       1    6540    6528    6546       1    6528    6507
    6531       1    6525    6543    6555       1    6519    6501    6522       1
    6510    6492    6513       1    6510    6498    6516       1    6507    6528
    6546       1    6504    6519    6537       1    6501    6519    6537       1
    6498    6510    6534       1    6492    6483    6495       1    6492    6510
    6534       1    6489    6507    6531       1    6486    6498    6516       1
    6486    6501    6522       1    6483    6492    6513       1    6480    6483
    6495       1    6684    6675    6687       1    6684    6678    6690       1
    6678    6669    6681       1    6678    6684    6693       1    6675    6684
    6693       1    6669    6678    6690       1    6666    6660    6672       1
    6666    6675    6687       1    6660    6651    6663       1    6657    6669
    6681       1    6651    6660    6672       1    6648    6636    6654       1
    6636    6615    6639       1    6633    6651    6663       1    6627    6609
    6630       1    6618    6600    6621       1    6618    6606    6624       1
    6615    6636    6654       1    6612    6627    6645       1    6609    6627
    6645       1    6606    6618    6642       1    6600    6591    6603       1
    6600    6618    6642       1    6597    6615    6639       1    6594    6606
    6624       1    6594    6609    6630       1    6591    6600    6621       1
    6588    6591    6603       1    6792    6783    6795       1    6792    6786
    6798       1    6786    6777    6789       1    6786    6792    6801       1
    6783    6792    6801       1    6777    6786    6798       1    6774    6768
    6780       1    6774    6783    6795       1    6768    6759    6771       1
    6765    6777    6789       1    6759    6768    6780       1    6756    6744
    6762       1    6744    6723    6747       1    6741    6759    6771       1
    6735    6717    6738       1    6726    6708    6729       1    6726    6714
    6732       1    6723    6744    6762       1    6720    6735    6753       1
    6717    6735    6753       1    6714    6726    6750       1    6708    6699
    6711       1    6708    6726    6750       1    6705    6723    6747       1
    6702    6714    6732       1    6702    6717    6738       1    6699    6708
    6729       1    6696    6699    6711       1    6900    6891    6903       1
    6900    6894    6906       1    6894    6885    6897       1    6894    6900
    6909       1    6891    6900    6909       1    6885    6894    6906       1
    6882    6876    6888       1    6882    6891    6903       1    6876    6867
    6879       1    6873    6885    6897       1    6867    6876    6888       1
    6864    6852    6870       1    6852    6831    6855       1    6849    6867
    6879       1    6843    6825    6846       1    6834    6816    6837       1
    6834    6822    6840       1    6831    6852    6870       1    6828    6843
    6861       1    6825    6843    6861       1    6822    6834    6858       1
    6816    6807    6819       1    6816    6834    6858       1    6813    6831
    6855       1    6810    6822    6840       1    6810    6825    6846       1
    6807    6816    6837       1    6804    6807    6819       1    7008    6999
    7011       1    7008    7002    7014       1    7002    6993    7005       1
    7002    7008    7017       1    6999    7008    7017       1    6993    7002
    7014       1    6990    6984    6996       1    6990    6999    7011       1
    6984    6975    6987       1    6981    6993    7005       1    6975    6984
    6996       1    6972    6960    6978       1    6960    6939    6963       1
    6957    6975    6987       1    6951    6933    6954       1    6942    6924
    6945       1    6942    6930    6948       1    6939    6960    6978       1
    6936    6951    6969       1    6933    6951    6969       1    6930    6942
    6966       1    6924    6915    6927       1    6924    6942    6966       1
    6921    6939    6963       1    6918    6930    6948       1    6918    6933
    6954       1    6915    6924    6945       1    6912    6915    6927       1
    7116    7107    7119       1    7116    7110    7122       1    7110    7101
    7113       1    7110    7116    7125       1    7107    7116    7125       1
    7101    7110    7122       1    7098    7092    7104       1    7098    7107
    7119       1    7092    7083    7095       1    7089    7101    7113       1
    7083    7092    7104       1    7080    7068    7086       1    7068    7047
    7071       1    7065    7083    7095       1    7059    7041    7062       1
    7050    7032    7053       1    7050    7038    7056       1    7047    7068
    7086       1    7044    7059    7077       1    7041    7059    7077       1
    7038    7050    7074       1    7032    7023    7035       1    7032    7050
    7074       1    7029    7047    7071       1    7026    7038    7056       1
    7026    7041    7062       1    7023    7032    7053       1    7020    7023
    7035       1    7224    7215    7227       1    7224    7218    7230       1
    7218    7209    7221       1    7218    7224    7233       1    7215    7224
    7233       1    7209    7218    7230       1    7206    7200    7212       1
    7206    7215    7227       1    7200    7191    7203       1    7197    7209
    7221       1    7191    7200    7212       1    7188    7176    7194       1
    7176    7155    7179       1    7173    7191    7203       1    7167    7149
    7170       1    7158    7140    7161       1    7158    7146    7164       1
    7155    7176    7194       1    7152    7167    7185       1    7149    7167
    7185       1    7146    7158    7182       1    7140    7131    7143       1
    7140    7158    7182       1    7137    7155    7179       1    7134    7146
    7164       1    7134    7149    7170       1    7131    7140    7161       1
    7128    7131    7143       1    7332    7323    7335       1    7332    7326
    7338       1    7326    7317    7329       1    7326    7332    7341       1
    7323    7332    7341       1    7317    7326    7338       1    7314    7308
    7320       1    7314    7323    7335       1    7308    7299    7311       1
    7305    7317    7329       1    7299    7308    7320       1    7296    7284
    7302       1    7284    7263    7287       1    7281    7299    7311       1
    7275    7257    7278       1    7266    7248    7269       1    7266    7254
    7272       1    7263    7284    7302       1    7260    7275    7293       1
    7257    7275    7293       1    7254    7266    7290       1    7248    7239
    7251       1    7248    7266    7290       1    7245    7263    7287       1
    7242    7254    7272       1    7242    7257    7278       1    7239    7248
    7269       1    7236    7239    7251       1    7440    7431    7443       1
    7440    7434    7446       1    7434    7425    7437       1    7434    7440
    7449       1    7431    7440    7449       1    7425    7434    7446       1
    7422    7416    7428       1    7422    7431    7443       1    7416    7407
    7419       1    7413    7425    7437       1    7407    7416    7428       1
    7404    7392    7410       1    7392    7371    7395       1    7389    7407
    7419       1    7383    7365    7386       1    7374    7356    7377       1
    7374    7362    7380       1    7371    7392    7410       1    7368    7383
    7401       1    7365    7383    7401       1    7362    7374    7398       1
    7356    7347    7359       1    7356    7374    7398       1    7353    7371
    7395       1    7350    7362    7380       1    7350    7365    7386       1
    7347    7356    7377       1    7344    7347    7359       1    7548    7539
    7551       1    7548    7542    7554       1    7542    7533    7545       1
    7542    7548    7557       1    7539    7548    7557       1    7533    7542
    7554       1    7530    7524    7536       1    7530    7539    7551       1
    7524    7515    7527       1    7521    7533    7545       1    7515    7524
    7536       1    7512    7500    7518       1    7500    7479    7503       1
    7497    7515    7527       1    7491    7473    7494       1    7482    7464
    7485       1    7482    7470    7488       1    7479    7500    7518       1
    7476    7491    7509       1    7473    7491    7509       1    7470    7482
    7506       1    7464    7455    7467       1    7464    7482    7506       1
    7461    7479    7503       1    7458    7470    7488       1    7458    7473
    7494       1    7455    7464    7485       1    7452    7455    7467       1
    7656    7647    7659       1    7656    7650    7662       1    7650    7641
    7653       1    7650    7656    7665       1    7647    7656    7665       1
    7641    7650    7662       1    7638    7632    7644       1    7638    7647
    7659       1    7632    7623    7635       1    7629    7641    7653       1
    7623    7632    7644       1    7620    7608    7626       1    7608    7587
    7611       1    7605    7623    7635       1    7599    7581    7602       1
    7590    7572    7593       1    7590    7578    7596       1    7587    7608
    7626       1    7584    7599    7617       1    7581    7599    7617       1
    7578    7590    7614       1    7572    7563    7575       1    7572    7590
    7614       1    7569    7587    7611       1    7566    7578    7596       1
    7566    7581    7602       1    7563    7572    7593       1    7560    7563
    7575       1    7764    7755    7767       1    7764    7758    7770       1
    7758    7749    7761       1    7758    7764    7773       1    7755    7764
    7773       1    7749    7758    7770       1    7746    7740    7752       1
    7746    7755    7767       1    7740    7731    7743       1    7737    7749
    7761       1    7731    7740    7752       1    7728    7716    7734       1
    7716    7695    7719       1    7713    7731    7743       1    7707    7689
    7710       1    7698    7680    7701       1    7698    7686    7704       1
    7695    7716    7734       1    7692    7707    7725       1    7689    7707
    7725       1    7686    7698    7722       1    7680    7671    7683       1
    7680    7698    7722       1    7677    7695    7719       1    7674    7686
    7704       1    7674    7689    7710       1    7671    7680    7701       1
    7668    7671    7683       1    7872    7863    7875       1    7872    7866
    7878       1    7866    7857    7869       1    7866    7872    7881       1
    7863    7872    7881       1    7857    7866    7878       1    7854    7848
    7860       1    7854    7863    7875       1    7848    7839    7851       1
    7845    7857    7869       1    7839    7848    7860       1    7836    7824
    7842       1    7824    7803    7827       1    7821    7839    7851       1
    7815    7797    7818       1    7806    7788    7809       1    7806    7794
    7812       1    7803    7824    7842       1    7800    7815    7833       1
    7797    7815    7833       1    7794    7806    7830       1    7788    7779
    7791       1    7788    7806    7830       1    7785    7803    7827       1
    7782    7794    7812       1    7782    7797    7818       1    7779    7788
    7809       1    7776    7779    7791       1    7980    7971    7983       1
    7980    7974    7986       1    7974    7965    7977       1    7974    7980
    7989       1    7971    7980    7989       1    7965    7974    7986       1
    7962    7956    7968       1    7962    7971    7983       1    7956    7947
    7959       1    7953    7965    7977       1    7947    7956    7968       1
    7944    7932    7950       1    7932    7911    7935       1    7929    7947
    7959       1    7923    7905    7926       1    7914    7896    7917       1
    7914    7902    7920       1    7911    7932    7950       1    7908    7923
    7941       1    7905    7923    7941       1    7902    7914    7938       1
    7896    7887    7899       1    7896    7914    7938       1    7893    7911
    7935       1    7890    7902    7920       1    7890    7905    7926       1
    7887    7896    7917       1    7884    7887    7899       1    8088    8079
    8091       1    8088    8082    8094       1    8082    8073    8085       1
    8082    8088    8097       1    8079    8088    8097       1    8073    8082
    8094       1    8070    8064    8076       1    8070    8079    8091       1
    8064    8055    8067       1    8061    8073    8085       1    8055    8064
    8076       1    8052    8040    8058       1    8040    8019    8043       1
    8037    8055    8067       1    8031    8013    8034       1    8022    8004
    8025       1    8022    8010    8028       1    8019    8040    8058       1
    8016    8031    8049       1    8013    8031    8049       1    8010    8022
    8046       1    8004    7995    8007       1    8004    8022    8046       1
    8001    8019    8043       1    7998    8010    8028       1    7998    8013
    8034       1    7995    8004    8025       1    7992    7995    8007       1
    8196    8187    8199       1    8196    8190    8202       1    8190    8181
    8193       1    8190    8196    8205       1    8187    8196    8205       1
    8181    8190    8202       1    8178    8172    8184       1    8178    8187
    8199       1    8172    8163    8175       1    8169    8181    8193       1
    8163    8172    8184       1    8160    8148    8166       1    8148    8127
    8151       1    8145    8163    8175       1    8139    8121    8142       1
    8130    8112    8133       1    8130    8118    8136       1    8127    8148
    8166       1    8124    8139    8157       1    8121    8139    8157       1
    8118    8130    8154       1    8112    8103    8115       1    8112    8130
    8154       1    8109    8127    8151       1    8106    8118    8136       1
    8106    8121    8142       1    8103    8112    8133       1    8100    8103
    8115       1    8304    8295    8307       1    8304    8298    8310       1
    8298    8289    8301       1    8298    8304    8313       1    8295    8304
    8313       1    8289    8298    8310       1    8286    8280    8292       1
    8286    8295    8307       1    8280    8271    8283       1    8277    8289
    8301       1    8271    8280    8292       1    8268    8256    8274       1
    8256    8235    8259       1    8253    8271    8283       1    8247    8229
    8250       1    8238    8220    8241       1    8238    8226    8244       1
    8235    8256    8274       1    8232    8247    8265       1    8229    8247
    8265       1    8226    8238    8262       1    8220    8211    8223       1
    8220    8238    8262       1    8217    8235    8259       1    8214    8226
    8244       1    8214    8229    8250       1    8211    8220    8241       1
    8208    8211    8223       1    8412    8403    8415       1    8412    8406
    8418       1    8406    8397    8409       1    8406    8412    8421       1
    8403    8412    8421       1    8397    8406    8418       1    8394    8388
    8400       1    8394    8403    8415       1    8388    8379    8391       1
    8385    8397    8409       1    8379    8388    8400       1    8376    8364
    8382       1    8364    8343    8367       1    8361    8379    8391       1
    8355    8337    8358       1    8346    8328    8349       1    8346    8334
    8352       1    8343    8364    8382       1    8340    8355    8373       1
    8337    8355    8373       1    8334    8346    8370       1    8328    8319
    8331       1    8328    8346    8370       1    8325    8343    8367       1
    8322    8334    8352       1    8322    8337    8358       1    8319    8328
    8349       1    8316    8319    8331       1    8520    8511    8523       1
    8520    8514    8526       1    8514    8505    8517       1    8514    8520
    8529       1    8511    8520    8529       1    8505    8514    8526       1
    8502    8496    8508       1    8502    8511    8523       1    8496    8487
    8499       1    8493    8505    8517       1    8487    8496    8508       1
    8484    8472    8490       1    8472    8451    8475       1    8469    8487
    8499       1    8463    8445    8466       1    8454    8436    8457       1
    8454    8442    8460       1    8451    8472    8490       1    8448    8463
    8481       1    8445    8463    8481       1    8442    8454    8478       1
    8436    8427    8439       1    8436    8454    8478       1    8433    8451
    8475       1    8430    8442    8460       1    8430    8445    8466       1
    8427    8436    8457       1    8424    8427    8439       1    8628    8619
    8631       1    8628    8622    8634       1    8622    8613    8625       1
    8622    8628    8637       1    8619    8628    8637       1    8613    8622
    8634       1    8610    8604    8616       1    8610    8619    8631       1
    8604    8595    8607       1    8601    8613    8625       1    8595    8604
    8616       1    8592    8580    8598       1    8580    8559    8583       1
    8577    8595    8607       1    8571    8553    8574       1    8562    8544
    8565       1    8562    8550    8568       1    8559    8580    8598       1
    8556    8571    8589       1    8553    8571    8589       1    8550    8562
    8586       1    8544    8535    8547       1    8544    8562    8586       1
    8541    8559    8583       1    8538    8550    8568       1    8538    8553
    8574       1    8535    8544    8565       1    8532    8535    8547       1
    8736    8727    8739       1    8736    8730    8742       1    8730    8721
    8733       1    8730    8736    8745       1    8727    8736    8745       1
    8721    8730    8742       1    8718    8712    8724       1    8718    8727
    8739       1    8712    8703    8715       1    8709    8721    8733       1
    8703    8712    8724       1    8700    8688    8706       1    8688    8667
    8691       1    8685    8703    8715       1    8679    8661    8682       1
    8670    8652    8673       1    8670    8658    8676       1    8667    8688
    8706       1    8664    8679    8697       1    8661    8679    8697       1
    8658    8670    8694       1    8652    8643    8655       1    8652    8670
    8694       1    8649    8667    8691       1    8646    8658    8676       1
    8646    8661    8682       1    8643    8652    8673       1    8640    8643
    8655       1    8844    8835    8847       1    8844    8838    8850       1
    8838    8829    8841       1    8838    8844    8853       1    8835    8844
    8853       1    8829    8838    8850       1    8826    8820    8832       1
    8826    8835    8847       1    8820    8811    8823       1    8817    8829
    8841       1    8811    8820    8832       1    8808    8796    8814       1
    8796    8775    8799       1    8793    8811    8823       1    8787    8769
    8790       1    8778    8760    8781       1    8778    8766    8784       1
    8775    8796    8814       1    8772    8787    8805       1    8769    8787
    8805       1    8766    8778    8802       1    8760    8751    8763       1
    8760    8778    8802       1    8757    8775    8799       1    8754    8766
    8784       1    8754    8769    8790       1    8751    8760    8781       1
    8748    8751    8763       1    8952    8943    8955       1    8952    8946
    8958       1    8946    8937    8949       1    8946    8952    8961       1
    8943    8952    8961       1    8937    8946    8958       1    8934    8928
    8940       1    8934    8943    8955       1    8928    8919    8931       1
    8925    8937    8949       1    8919    8928    8940       1    8916    8904
    8922       1    8904    8883    8907       1    8901    8919    8931       1
    8895    8877    8898       1    8886    8868    8889       1    8886    8874
    8892       1    8883    8904    8922       1    8880    8895    8913       1
    8877    8895    8913       1    8874    8886    8910       1    8868    8859
    8871       1    8868    8886    8910       1    8865    8883    8907       1
    8862    8874    8892       1    8862    8877    8898       1    8859    8868
    8889       1    8856    8859    8871       1    9060    9051    9063       1
    9060    9054    9066       1    9054    9045    9057       1    9054    9060
    9069       1    9051    9060    9069       1    9045    9054    9066       1
    9042    9036    9048       1    9042    9051    9063       1    9036    9027
    9039       1    9033    9045    9057       1    9027    9036    9048       1
    9024    9012    9030       1    9012    8991    9015       1    9009    9027
    9039       1    9003    8985    9006       1    8994    8976    8997       1
    8994    8982    9000       1    8991    9012    9030       1    8988    9003
    9021       1    8985    9003    9021       1    8982    8994    9018       1
    8976    8967    8979       1    8976    8994    9018       1    8973    8991
    9015       1    8970    8982    9000       1    8970    8985    9006       1
    8967    8976    8997       1    8964    8967    8979       1    9168    9159
    9171       1    9168    9162    9174       1    9162    9153    9165       1
    9162    9168    9177       1    9159    9168    9177       1    9153    9162
    9174       1    9150    9144    9156       1    9150    9159    9171       1
    9144    9135    9147       1    9141    9153    9165       1    9135    9144
    9156       1    9132    9120    9138       1    9120    9099    9123       1
    9117    9135    9147       1    9111    9093    9114       1    9102    9084
    9105       1    9102    9090    9108       1    9099    9120    9138       1
    9096    9111    9129       1    9093    9111    9129       1    9090    9102
    9126       1    9084    9075    9087       1    9084    9102    9126       1
    9081    9099    9123       1    9078    9090    9108       1    9078    9093
    9114       1    9075    9084    9105       1    9072    9075    9087       1
    9276    9267    9279       1    9276    9270    9282       1    9270    9261
    9273       1    9270    9276    9285       1    9267    9276    9285       1
    9261    9270    9282       1    9258    9252    9264       1    9258    9267
    9279       1    9252    9243    9255       1    9249    9261    9273       1
    9243    9252    9264       1    9240    9228    9246       1    9228    9207
    9231       1    9225    9243    9255       1    9219    9201    9222       1
    9210    9192    9213       1    9210    9198    9216       1    9207    9228
    9246       1    9204    9219    9237       1    9201    9219    9237       1
    9198    9210    9234       1    9192    9183    9195       1    9192    9210
    9234       1    9189    9207    9231       1    9186    9198    9216       1
    9186    9201    9222       1    9183    9192    9213       1    9180    9183
    9195       1    9384    9375    9387       1    9384    9378    9390       1
    9378    9369    9381       1    9378    9384    9393       1    9375    9384
    9393       1    9369    9378    9390       1    9366    9360    9372       1
    9366    9375    9387       1    9360    9351    9363       1    9357    9369
    9381       1    9351    9360    9372       1    9348    9336    9354       1
    9336    9315    9339       1    9333    9351    9363       1    9327    9309
    9330       1    9318    9300    9321       1    9318    9306    9324       1
    9315    9336    9354       1    9312    9327    9345       1    9309    9327
    9345       1    9306    9318    9342       1    9300    9291    9303       1
    9300    9318    9342       1    9297    9315    9339       1    9294    9306
    9324       1    9294    9309    9330       1    9291    9300    9321       1
    9288    9291    9303       1    9492    9483    9495       1    9492    9486
    9498       1    9486    9477    9489       1    9486    9492    9501       1
    9483    9492    9501       1    9477    9486    9498       1    9474    9468
    9480       1    9474    9483    9495       1    9468    9459    9471       1
    9465    9477    9489       1    9459    9468    9480       1    9456    9444
    9462       1    9444    9423    9447       1    9441    9459    9471       1
    9435    9417    9438       1    9426    9408    9429       1    9426    9414
    9432       1    9423    9444    9462       1    9420    9435    9453       1
    9417    9435    9453       1    9414    9426    9450       1    9408    9399
    9411       1    9408    9426    9450       1    9405    9423    9447       1
    9402    9414    9432       1    9402    9417    9438       1    9399    9408
    9429       1    9396    9399    9411       1    9600    9591    9603       1
    9600    9594    9606       1    9594    9585    9597       1    9594    9600
    9609       1    9591    9600    9609       1    9585    9594    9606       1
    9582    9576    9588       1    9582    9591    9603       1    9576    9567
    9579       1    9573    9585    9597       1    9567    9576    9588       1
    9564    9552    9570       1    9552    9531    9555       1    9549    9567
    9579       1    9543    9525    9546       1    9534    9516    9537       1
    9534    9522    9540       1    9531    9552    9570       1    9528    9543
    9561       1    9525    9543    9561       1    9522    9534    9558       1
    9516    9507    9519       1    9516    9534    9558       1    9513    9531
    9555       1    9510    9522    9540       1    9510    9525    9546       1
    9507    9516    9537       1    9504    9507    9519       1    9708    9699
    9711       1    9708    9702    9714       1    9702    9693    9705       1
    9702    9708    9717       1    9699    9708    9717       1    9693    9702
    9714       1    9690    9684    9696       1    9690    9699    9711       1
    9684    9675    9687       1    9681    9693    9705       1    9675    9684
    9696       1    9672    9660    9678       1    9660    9639    9663       1
    9657    9675    9687       1    9651    9633    9654       1    9642    9624
    9645       1    9642    9630    9648       1    9639    9660    9678       1
    9636    9651    9669       1    9633    9651    9669       1    9630    9642
    9666       1    9624    9615    9627       1    9624    9642    9666       1
    9621    9639    9663       1    9618    9630    9648       1    9618    9633
    9654       1    9615    9624    9645       1    9612    9615    9627       1
    9816    9807    9819       1    9816    9810    9822       1    9810    9801
    9813       1    9810    9816    9825       1    9807    9816    9825       1
    9801    9810    9822       1    9798    9792    9804       1    9798    9807
    9819       1    9792    9783    9795       1    9789    9801    9813       1
    9783    9792    9804       1    9780    9768    9786       1    9768    9747
    9771       1    9765    9783    9795       1    9759    9741    9762       1
    9750    9732    9753       1    9750    9738    9756       1    9747    9768
    9786       1    9744    9759    9777       1    9741    9759    9777       1
    9738    9750    9774       1    9732    9723    9735       1    9732    9750
    9774       1    9729    9747    9771       1    9726    9738    9756       1
    9726    9741    9762       1    9723    9732    9753       1    9720    9723
    9735       1    9924    9915    9927       1    9924    9918    9930       1
    9918    9909    9921       1    9918    9924    9933       1    9915    9924
    9933       1    9909    9918    9930       1    9906    9900    9912       1
    9906    9915    9927       1    9900    9891    9903       1    9897    9909
    9921       1    9891    9900    9912       1    9888    9876    9894       1
    9876    9855    9879       1    9873    9891    9903       1    9867    9849
    9870       1    9858    9840    9861       1    9858    9846    9864       1
    9855    9876    9894       1    9852    9867    9885       1    9849    9867
    9885       1    9846    9858    9882       1    9840    9831    9843       1
    9840    9858    9882       1    9837    9855    9879       1    9834    9846
    9864       1    9834    9849    9870       1    9831    9840    9861       1
    9828    9831    9843       1   10032   10023   10035       1   10032   10026
   10038       1   10026   10017   10029       1   10026   10032   10041       1
   10023   10032   10041       1   10017   10026   10038       1   10014   10008
   10020       1   10014   10023   10035       1   10008    9999   10011       1
   10005   10017   10029       1    9999   10008   10020       1    9996    9984
   10002       1    9984    9963    9987       1    9981    9999   10011       1
    9975    9957    9978       1    9966    9948    9969       1    9966    9954
    9972       1    9963    9984   10002       1    9960    9975    9993       1
    9957    9975    9993       1    9954    9966    9990       1    9948    9939
    9951       1    9948    9966    9990       1    9945    9963    9987       1
    9942    9954    9972       1    9942    9957    9978       1    9939    9948
    9969       1    9936    9939    9951       1   10140   10131   10143       1
   10140   10134   10146       1   10134   10125   10137       1   10134   10140
   10149       1   10131   10140   10149       1   10125   10134   10146       1
   10122   10116   10128       1   10122   10131   10143       1   10116   10107
   10119       1   10113   10125   10137       1   10107   10116   10128       1
   10104   10092   10110       1   10092   10071   10095       1   10089   10107
   10119       1   10083   10065   10086       1   10074   10056   10077       1
   10074   10062   10080       1   10071   10092   10110       1   10068   10083
   10101       1   10065   10083   10101       1   10062   10074   10098       1
   10056   10047   10059       1   10056   10074   10098       1   10053   10071
   10095       1   10050   10062   10080       1   10050   10065   10086       1
   10047   10056   10077       1   10044   10047   10059       1   10248   10239
   10251       1   10248   10242   10254       1   10242   10233   10245       1
   10242   10248   10257       1   10239   10248   10257       1   10233   10242
   10254       1   10230   10224   10236       1   10230   10239   10251       1
   10224   10215   10227       1   10221   10233   10245       1   10215   10224
   10236       1   10212   10200   10218       1   10200   10179   10203       1
   10197   10215   10227       1   10191   10173   10194       1   10182   10164
   10185       1   10182   10170   10188       1   10179   10200   10218       1
   10176   10191   10209       1   10173   10191   10209       1   10170   10182
   10206       1   10164   10155   10167       1   10164   10182   10206       1
   10161   10179   10203       1   10158   10170   10188       1   10158   10173
   10194       1   10155   10164   10185       1   10152   10155   10167       1
   10356   10347   10359       1   10356   10350   10362       1   10350   10341
   10353       1   10350   10356   10365       1   10347   10356   10365       1
   10341   10350   10362       1   10338   10332   10344       1   10338   10347
   10359       1   10332   10323   10335       1   10329   10341   10353       1
   10323   10332   10344       1   10320   10308   10326       1   10308   10287
   10311       1   10305   10323   10335       1   10299   10281   10302       1
   10290   10272   10293       1   10290   10278   10296       1   10287   10308
   10326       1   10284   10299   10317       1   10281   10299   10317       1
   10278   10290   10314       1   10272   10263   10275       1   10272   10290
   10314       1   10269   10287   10311       1   10266   10278   10296       1
   10266   10281   10302       1   10263   10272   10293       1   10260   10263
   10275       1   10464   10455   10467       1   10464   10458   10470       1
   10458   10449   10461       1   10458   10464   10473       1   10455   10464
   10473       1   10449   10458   10470       1   10446   10440   10452       1
   10446   10455   10467       1   10440   10431   10443       1   10437   10449
   10461       1   10431   10440   10452       1   10428   10416   10434       1
   10416   10395   10419       1   10413   10431   10443       1   10407   10389
   10410       1   10398   10380   10401       1   10398   10386   10404       1
   10395   10416   10434       1   10392   10407   10425       1   10389   10407
   10425       1   10386   10398   10422       1   10380   10371   10383       1
   10380   10398   10422       1   10377   10395   10419       1   10374   10386
   10404       1   10374   10389   10410       1   10371   10380   10401       1
   10368   10371   10383       1   10572   10563   10575       1   10572   10566
   10578       1   10566   10557   10569       1   10566   10572   10581       1
   10563   10572   10581       1   10557   10566   10578       1   10554   10548
   10560       1   10554   10563   10575       1   10548   10539   10551       1
   10545   10557   10569       1   10539   10548   10560       1   10536   10524
   10542       1   10524   10503   10527       1   10521   10539   10551       1
   10515   10497   10518       1   10506   10488   10509       1   10506   10494
   10512       1   10503   10524   10542       1   10500   10515   10533       1
   10497   10515   10533       1   10494   10506   10530       1   10488   10479
   10491       1   10488   10506   10530       1   10485   10503   10527       1
   10482   10494   10512       1   10482   10497   10518       1   10479   10488
   10509       1   10476   10479   10491       1   10680   10671   10683       1
   10680   10674   10686       1   10674   10665   10677       1   10674   10680
   10689       1   10671   10680   10689       1   10665   10674   10686       1
   10662   10656   10668       1   10662   10671   10683       1   10656   10647
   10659       1   10653   10665   10677       1   10647   10656   10668       1
   10644   10632   10650       1   10632   10611   10635       1   10629   10647
   10659       1   10623   10605   10626       1   10614   10596   10617       1
   10614   10602   10620       1   10611   10632   10650       1   10608   10623
   10641       1   10605   10623   10641       1   10602   10614   10638       1
   10596   10587   10599       1   10596   10614   10638       1   10593   10611
   10635       1   10590   10602   10620       1   10590   10605   10626       1
   10587   10596   10617       1   10584   10587   10599       1   10788   10779
   10791       1   10788   10782   10794       1   10782   10773   10785       1
   10782   10788   10797       1   10779   10788   10797       1   10773   10782
   10794       1   10770   10764   10776       1   10770   10779   10791       1
   10764   10755   10767       1   10761   10773   10785       1   10755   10764
   10776       1   10752   10740   10758       1   10740   10719   10743       1
   10737   10755   10767       1   10731   10713   10734       1   10722   10704
   10725       1   10722   10710   10728       1   10719   10740   10758       1
   10716   10731   10749       1   10713   10731   10749       1   10710   10722
   10746       1   10704   10695   10707       1   10704   10722   10746       1
   10701   10719   10743       1   10698   10710   10728       1   10698   10713
   10734       1   10695   10704   10725       1   10692   10695   10707       1
   10896   10887   10899       1   10896   10890   10902       1   10890   10881
   10893       1   10890   10896   10905       1   10887   10896   10905       1
   10881   10890   10902       1   10878   10872   10884       1   10878   10887
   10899       1   10872   10863   10875       1   10869   10881   10893       1
   10863   10872   10884       1   10860   10848   10866       1   10848   10827
   10851       1   10845   10863   10875       1   10839   10821   10842       1
   10830   10812   10833       1   10830   10818   10836       1   10827   10848
   10866       1   10824   10839   10857       1   10821   10839   10857       1
   10818   10830   10854       1   10812   10803   10815       1   10812   10830
   10854       1   10809   10827   10851       1   10806   10818   10836       1
   10806   10821   10842       1   10803   10812   10833       1   10800   10803
   10815       1   11004   10995   11007       1   11004   10998   11010       1
   10998   10989   11001       1   10998   11004   11013       1   10995   11004
   11013       1   10989   10998   11010       1   10986   10980   10992       1
   10986   10995   11007       1   10980   10971   10983       1   10977   10989
   11001       1   10971   10980   10992       1   10968   10956   10974       1
   10956   10935   10959       1   10953   10971   10983       1   10947   10929
   10950       1   10938   10920   10941       1   10938   10926   10944       1
   10935   10956   10974       1   10932   10947   10965       1   10929   10947
   10965       1   10926   10938   10962       1   10920   10911   10923       1
   10920   10938   10962       1   10917   10935   10959       1   10914   10926
   10944       1   10914   10929   10950       1   10911   10920   10941       1
   10908   10911   10923       1   11112   11103   11115       1   11112   11106
   11118       1   11106   11097   11109       1   11106   11112   11121       1
   11103   11112   11121       1   11097   11106   11118       1   11094   11088
   11100       1   11094   11103   11115       1   11088   11079   11091       1
   11085   11097   11109       1   11079   11088   11100       1   11076   11064
   11082       1   11064   11043   11067       1   11061   11079   11091       1
   11055   11037   11058       1   11046   11028   11049       1   11046   11034
   11052       1   11043   11064   11082       1   11040   11055   11073       1
   11037   11055   11073       1   11034   11046   11070       1   11028   11019
   11031       1   11028   11046   11070       1   11025   11043   11067       1
   11022   11034   11052       1   11022   11037   11058       1   11019   11028
   11049       1   11016   11019   11031       1   11220   11211   11223       1
   11220   11214   11226       1   11214   11205   11217       1   11214   11220
   11229       1   11211   11220   11229       1   11205   11214   11226       1
   11202   11196   11208       1   11202   11211   11223       1   11196   11187
   11199       1   11193   11205   11217       1   11187   11196   11208       1
   11184   11172   11190       1   11172   11151   11175       1   11169   11187
   11199       1   11163   11145   11166       1   11154   11136   11157       1
   11154   11142   11160       1   11151   11172   11190       1   11148   11163
   11181       1   11145   11163   11181       1   11142   11154   11178       1
   11136   11127   11139       1   11136   11154   11178       1   11133   11151
   11175       1   11130   11142   11160       1   11130   11145   11166       1
   11127   11136   11157       1   11124   11127   11139       1   11328   11319
   11331       1   11328   11322   11334       1   11322   11313   11325       1
   11322   11328   11337       1   11319   11328   11337       1   11313   11322
   11334       1   11310   11304   11316       1   11310   11319   11331       1
   11304   11295   11307       1   11301   11313   11325       1   11295   11304
   11316       1   11292   11280   11298       1   11280   11259   11283       1
   11277   11295   11307       1   11271   11253   11274       1   11262   11244
   11265       1   11262   11250   11268       1   11259   11280   11298       1
   11256   11271   11289       1   11253   11271   11289       1   11250   11262
   11286       1   11244   11235   11247       1   11244   11262   11286       1
   11241   11259   11283       1   11238   11250   11268       1   11238   11253
   11274       1   11235   11244   11265       1   11232   11235   11247       1
   11436   11427   11439       1   11436   11430   11442       1   11430   11421
   11433       1   11430   11436   11445       1   11427   11436   11445       1
   11421   11430   11442       1   11418   11412   11424       1   11418   11427
   11439       1   11412   11403   11415       1   11409   11421   11433       1
   11403   11412   11424       1   11400   11388   11406       1   11388   11367
   11391       1   11385   11403   11415       1   11379   11361   11382       1
   11370   11352   11373       1   11370   11358   11376       1   11367   11388
   11406       1   11364   11379   11397       1   11361   11379   11397       1
   11358   11370   11394       1   11352   11343   11355       1   11352   11370
   11394       1   11349   11367   11391       1   11346   11358   11376       1
   11346   11361   11382       1   11343   11352   11373       1   11340   11343
   11355       1   11544   11535   11547       1   11544   11538   11550       1
   11538   11529   11541       1   11538   11544   11553       1   11535   11544
   11553       1   11529   11538   11550       1   11526   11520   11532       1
   11526   11535   11547       1   11520   11511   11523       1   11517   11529
   11541       1   11511   11520   11532       1   11508   11496   11514       1
   11496   11475   11499       1   11493   11511   11523       1   11487   11469
   11490       1   11478   11460   11481       1   11478   11466   11484       1
   11475   11496   11514       1   11472   11487   11505       1   11469   11487
   11505       1   11466   11478   11502       1   11460   11451   11463       1
   11460   11478   11502       1   11457   11475   11499       1   11454   11466
   11484       1   11454   11469   11490       1   11451   11460   11481       1
   11448   11451   11463       1   11652   11643   11655       1   11652   11646
   11658       1   11646   11637   11649       1   11646   11652   11661       1
   11643   11652   11661       1   11637   11646   11658       1   11634   11628
   11640       1   11634   11643   11655       1   11628   11619   11631       1
   11625   11637   11649       1   11619   11628   11640       1   11616   11604
   11622       1   11604   11583   11607       1   11601   11619   11631       1
   11595   11577   11598       1   11586   11568   11589       1   11586   11574
   11592       1   11583   11604   11622       1   11580   11595   11613       1
   11577   11595   11613       1   11574   11586   11610       1   11568   11559
   11571       1   11568   11586   11610       1   11565   11583   11607       1
   11562   11574   11592       1   11562   11577   11598       1   11559   11568
   11589       1   11556   11559   11571       1   11760   11751   11763       1
   11760   11754   11766       1   11754   11745   11757       1   11754   11760
   11769       1   11751   11760   11769       1   11745   11754   11766       1
   11742   11736   11748       1   11742   11751   11763       1   11736   11727
   11739       1   11733   11745   11757       1   11727   11736   11748       1
   11724   11712   11730       1   11712   11691   11715       1   11709   11727
   11739       1   11703   11685   11706       1   11694   11676   11697       1
   11694   11682   11700       1   11691   11712   11730       1   11688   11703
   11721       1   11685   11703   11721       1   11682   11694   11718       1
   11676   11667   11679       1   11676   11694   11718       1   11673   11691
   11715       1   11670   11682   11700       1   11670   11685   11706       1
   11667   11676   11697       1   11664   11667   11679       1   11868   11859
   11871       1   11868   11862   11874       1   11862   11853   11865       1
   11862   11868   11877       1   11859   11868   11877       1   11853   11862
   11874       1   11850   11844   11856       1   11850   11859   11871       1
   11844   11835   11847       1   11841   11853   11865       1   11835   11844
   11856       1   11832   11820   11838       1   11820   11799   11823       1
   11817   11835   11847       1   11811   11793   11814       1   11802   11784
   11805       1   11802   11790   11808       1   11799   11820   11838       1
   11796   11811   11829       1   11793   11811   11829       1   11790   11802
   11826       1   11784   11775   11787       1   11784   11802   11826       1
   11781   11799   11823       1   11778   11790   11808       1   11778   11793
   11814       1   11775   11784   11805       1   11772   11775   11787       1
   11976   11967   11979       1   11976   11970   11982       1   11970   11961
   11973       1   11970   11976   11985       1   11967   11976   11985       1
   11961   11970   11982       1   11958   11952   11964       1   11958   11967
   11979       1   11952   11943   11955       1   11949   11961   11973       1
   11943   11952   11964       1   11940   11928   11946       1   11928   11907
   11931       1   11925   11943   11955       1   11919   11901   11922       1
   11910   11892   11913       1   11910   11898   11916       1   11907   11928
   11946       1   11904   11919   11937       1   11901   11919   11937       1
   11898   11910   11934       1   11892   11883   11895       1   11892   11910
   11934       1   11889   11907   11931       1   11886   11898   11916       1
   11886   11901   11922       1   11883   11892   11913       1   11880   11883
   11895       1   12084   12075   12087       1   12084   12078   12090       1
   12078   12069   12081       1   12078   12084   12093       1   12075   12084
   12093       1   12069   12078   12090       1   12066   12060   12072       1
   12066   12075   12087       1   12060   12051   12063       1   12057   12069
   12081       1   12051   12060   12072       1   12048   12036   12054       1
   12036   12015   12039       1   12033   12051   12063       1   12027   12009
   12030       1   12018   12000   12021       1   12018   12006   12024       1
   12015   12036   12054       1   12012   12027   12045       1   12009   12027
   12045       1   12006   12018   12042       1   12000   11991   12003       1
   12000   12018   12042       1   11997   12015   12039       1   11994   12006
   12024       1   11994   12009   12030       1   11991   12000   12021       1
   11988   11991   12003       1   12192   12183   12195       1   12192   12186
   12198       1   12186   12177   12189       1   12186   12192   12201       1
   12183   12192   12201       1   12177   12186   12198       1   12174   12168
   12180       1   12174   12183   12195       1   12168   12159   12171       1
   12165   12177   12189       1   12159   12168   12180       1   12156   12144
   12162       1   12144   12123   12147       1   12141   12159   12171       1
   12135   12117   12138       1   12126   12108   12129       1   12126   12114
   12132       1   12123   12144   12162       1   12120   12135   12153       1
   12117   12135   12153       1   12114   12126   12150       1   12108   12099
   12111       1   12108   12126   12150       1   12105   12123   12147       1
   12102   12114   12132       1   12102   12117   12138       1   12099   12108
   12129       1   12096   12099   12111       1   12300   12291   12303       1
   12300   12294   12306       1   12294   12285   12297       1   12294   12300
   12309       1   12291   12300   12309       1   12285   12294   12306       1
   12282   12276   12288       1   12282   12291   12303       1   12276   12267
   12279       1   12273   12285   12297       1   12267   12276   12288       1
   12264   12252   12270       1   12252   12231   12255       1   12249   12267
   12279       1   12243   12225   12246       1   12234   12216   12237       1
   12234   12222   12240       1   12231   12252   12270       1   12228   12243
   12261       1   12225   12243   12261       1   12222   12234   12258       1
   12216   12207   12219       1   12216   12234   12258       1   12213   12231
   12255       1   12210   12222   12240       1   12210   12225   12246       1
   12207   12216   12237       1   12204   12207   12219       1   12408   12399
   12411       1   12408   12402   12414       1   12402   12393   12405       1
   12402   12408   12417       1   12399   12408   12417       1   12393   12402
   12414       1   12390   12384   12396       1   12390   12399   12411       1
   12384   12375   12387       1   12381   12393   12405       1   12375   12384
   12396       1   12372   12360   12378       1   12360   12339   12363       1
   12357   12375   12387       1   12351   12333   12354       1   12342   12324
   12345       1   12342   12330   12348       1   12339   12360   12378       1
   12336   12351   12369       1   12333   12351   12369       1   12330   12342
   12366       1   12324   12315   12327       1   12324   12342   12366       1
   12321   12339   12363       1   12318   12330   12348       1   12318   12333
   12354       1   12315   12324   12345       1   12312   12315   12327       1
   12516   12507   12519       1   12516   12510   12522       1   12510   12501
   12513       1   12510   12516   12525       1   12507   12516   12525       1
   12501   12510   12522       1   12498   12492   12504       1   12498   12507
   12519       1   12492   12483   12495       1   12489   12501   12513       1
   12483   12492   12504       1   12480   12468   12486       1   12468   12447
   12471       1   12465   12483   12495       1   12459   12441   12462       1
   12450   12432   12453       1   12450   12438   12456       1   12447   12468
   12486       1   12444   12459   12477       1   12441   12459   12477       1
   12438   12450   12474       1   12432   12423   12435       1   12432   12450
   12474       1   12429   12447   12471       1   12426   12438   12456       1
   12426   12441   12462       1   12423   12432   12453       1   12420   12423
   12435       1   12624   12615   12627       1   12624   12618   12630       1
   12618   12609   12621       1   12618   12624   12633       1   12615   12624
   12633       1   12609   12618   12630       1   12606   12600   12612       1
   12606   12615   12627       1   12600   12591   12603       1   12597   12609
   12621       1   12591   12600   12612       1   12588   12576   12594       1
   12576   12555   12579       1   12573   12591   12603       1   12567   12549
   12570       1   12558   12540   12561       1   12558   12546   12564       1
   12555   12576   12594       1   12552   12567   12585       1   12549   12567
   12585       1   12546   12558   12582       1   12540   12531   12543       1
   12540   12558   12582       1   12537   12555   12579       1   12534   12546
   12564       1   12534   12549   12570       1   12531   12540   12561       1
   12528   12531   12543       1   12732   12723   12735       1   12732   12726
   12738       1   12726   12717   12729       1   12726   12732   12741       1
   12723   12732   12741       1   12717   12726   12738       1   12714   12708
   12720       1   12714   12723   12735       1   12708   12699   12711       1
   12705   12717   12729       1   12699   12708   12720       1   12696   12684
   12702       1   12684   12663   12687       1   12681   12699   12711       1
   12675   12657   12678       1   12666   12648   12669       1   12666   12654
   12672       1   12663   12684   12702       1   12660   12675   12693       1
   12657   12675   12693       1   12654   12666   12690       1   12648   12639
   12651       1   12648   12666   12690       1   12645   12663   12687       1
   12642   12654   12672       1   12642   12657   12678       1   12639   12648
   12669       1   12636   12639   12651       1   12840   12831   12843       1
   12840   12834   12846       1   12834   12825   12837       1   12834   12840
   12849       1   12831   12840   12849       1   12825   12834   12846       1
   12822   12816   12828       1   12822   12831   12843       1   12816   12807
   12819       1   12813   12825   12837       1   12807   12816   12828       1
   12804   12792   12810       1   12792   12771   12795       1   12789   12807
   12819       1   12783   12765   12786       1   12774   12756   12777       1
   12774   12762   12780       1   12771   12792   12810       1   12768   12783
   12801       1   12765   12783   12801       1   12762   12774   12798       1
   12756   12747   12759       1   12756   12774   12798       1   12753   12771
   12795       1   12750   12762   12780       1   12750   12765   12786       1
   12747   12756   12777       1   12744   12747   12759       1   12948   12939
   12951       1   12948   12942   12954       1   12942   12933   12945       1
   12942   12948   12957       1   12939   12948   12957       1   12933   12942
   12954       1   12930   12924   12936       1   12930   12939   12951       1
   12924   12915   12927       1   12921   12933   12945       1   12915   12924
   12936       1   12912   12900   12918       1   12900   12879   12903       1
   12897   12915   12927       1   12891   12873   12894       1   12882   12864
   12885       1   12882   12870   12888       1   12879   12900   12918       1
   12876   12891   12909       1   12873   12891   12909       1   12870   12882
   12906       1   12864   12855   12867       1   12864   12882   12906       1
   12861   12879   12903       1   12858   12870   12888       1   12858   12873
   12894       1   12855   12864   12885       1   12852   12855   12867       1
   13056   13047   13059       1   13056   13050   13062       1   13050   13041
   13053       1   13050   13056   13065       1   13047   13056   13065       1
   13041   13050   13062       1   13038   13032   13044       1   13038   13047
   13059       1   13032   13023   13035       1   13029   13041   13053       1
   13023   13032   13044       1   13020   13008   13026       1   13008   12987
   13011       1   13005   13023   13035       1   12999   12981   13002       1
   12990   12972   12993       1   12990   12978   12996       1   12987   13008
   13026       1   12984   12999   13017       1   12981   12999   13017       1
   12978   12990   13014       1   12972   12963   12975       1   12972   12990
   13014       1   12969   12987   13011       1   12966   12978   12996       1
   12966   12981   13002       1   12963   12972   12993       1   12960   12963
   12975       1   13164   13155   13167       1   13164   13158   13170       1
   13158   13149   13161       1   13158   13164   13173       1   13155   13164
   13173       1   13149   13158   13170       1   13146   13140   13152       1
   13146   13155   13167       1   13140   13131   13143       1   13137   13149
   13161       1   13131   13140   13152       1   13128   13116   13134       1
   13116   13095   13119       1   13113   13131   13143       1   13107   13089
   13110       1   13098   13080   13101       1   13098   13086   13104       1
   13095   13116   13134       1   13092   13107   13125       1   13089   13107
   13125       1   13086   13098   13122       1   13080   13071   13083       1
   13080   13098   13122       1   13077   13095   13119       1   13074   13086
   13104       1   13074   13089   13110       1   13071   13080   13101       1
   13068   13071   13083       1   13272   13263   13275       1   13272   13266
   13278       1   13266   13257   13269       1   13266   13272   13281       1
   13263   13272   13281       1   13257   13266   13278       1   13254   13248
   13260       1   13254   13263   13275       1   13248   13239   13251       1
   13245   13257   13269       1   13239   13248   13260       1   13236   13224
   13242       1   13224   13203   13227       1   13221   13239   13251       1
   13215   13197   13218       1   13206   13188   13209       1   13206   13194
   13212       1   13203   13224   13242       1   13200   13215   13233       1
   13197   13215   13233       1   13194   13206   13230       1   13188   13179
   13191       1   13188   13206   13230       1   13185   13203   13227       1
   13182   13194   13212       1   13182   13197   13218       1   13179   13188
   13209       1   13176   13179   13191       1   13380   13371   13383       1
   13380   13374   13386       1   13374   13365   13377       1   13374   13380
   13389       1   13371   13380   13389       1   13365   13374   13386       1
   13362   13356   13368       1   13362   13371   13383       1   13356   13347
   13359       1   13353   13365   13377       1   13347   13356   13368       1
   13344   13332   13350       1   13332   13311   13335       1   13329   13347
   13359       1   13323   13305   13326       1   13314   13296   13317       1
   13314   13302   13320       1   13311   13332   13350       1   13308   13323
   13341       1   13305   13323   13341       1   13302   13314   13338       1
   13296   13287   13299       1   13296   13314   13338       1   13293   13311
   13335       1   13290   13302   13320       1   13290   13305   13326       1
   13287   13296   13317       1   13284   13287   13299       1   13488   13479
   13491       1   13488   13482   13494       1   13482   13473   13485       1
   13482   13488   13497       1   13479   13488   13497       1   13473   13482
   13494       1   13470   13464   13476       1   13470   13479   13491       1
   13464   13455   13467       1   13461   13473   13485       1   13455   13464
   13476       1   13452   13440   13458       1   13440   13419   13443       1
   13437   13455   13467       1   13431   13413   13434       1   13422   13404
   13425       1   13422   13410   13428       1   13419   13440   13458       1
   13416   13431   13449       1   13413   13431   13449       1   13410   13422
   13446       1   13404   13395   13407       1   13404   13422   13446       1
   13401   13419   13443       1   13398   13410   13428       1   13398   13413
   13434       1   13395   13404   13425       1   13392   13395   13407       1
   13596   13587   13599       1   13596   13590   13602       1   13590   13581
   13593       1   13590   13596   13605       1   13587   13596   13605       1
   13581   13590   13602       1   13578   13572   13584       1   13578   13587
   13599       1   13572   13563   13575       1   13569   13581   13593       1
   13563   13572   13584       1   13560   13548   13566       1   13548   13527
   13551       1   13545   13563   13575       1   13539   13521   13542       1
   13530   13512   13533       1   13530   13518   13536       1   13527   13548
   13566       1   13524   13539   13557       1   13521   13539   13557       1
   13518   13530   13554       1   13512   13503   13515       1   13512   13530
   13554       1   13509   13527   13551       1   13506   13518   13536       1
   13506   13521   13542       1   13503   13512   13533       1   13500   13503
   13515       1   13704   13695   13707       1   13704   13698   13710       1
   13698   13689   13701       1   13698   13704   13713       1   13695   13704
   13713       1   13689   13698   13710       1   13686   13680   13692       1
   13686   13695   13707       1   13680   13671   13683       1   13677   13689
   13701       1   13671   13680   13692       1   13668   13656   13674       1
   13656   13635   13659       1   13653   13671   13683       1   13647   13629
   13650       1   13638   13620   13641       1   13638   13626   13644       1
   13635   13656   13674       1   13632   13647   13665       1   13629   13647
   13665       1   13626   13638   13662       1   13620   13611   13623       1
   13620   13638   13662       1   13617   13635   13659       1   13614   13626
   13644       1   13614   13629   13650       1   13611   13620   13641       1
   13608   13611   13623       1   13812   13803   13815       1   13812   13806
   13818       1   13806   13797   13809       1   13806   13812   13821       1
   13803   13812   13821       1   13797   13806   13818       1   13794   13788
   13800       1   13794   13803   13815       1   13788   13779   13791       1
   13785   13797   13809       1   13779   13788   13800       1   13776   13764
   13782       1   13764   13743   13767       1   13761   13779   13791       1
   13755   13737   13758       1   13746   13728   13749       1   13746   13734
   13752       1   13743   13764   13782       1   13740   13755   13773       1
   13737   13755   13773       1   13734   13746   13770       1   13728   13719
   13731       1   13728   13746   13770       1   13725   13743   13767       1
   13722   13734   13752       1   13722   13737   13758       1   13719   13728
   13749       1   13716   13719   13731       1   13920   13911   13923       1
   13920   13914   13926       1   13914   13905   13917       1   13914   13920
   13929       1   13911   13920   13929       1   13905   13914   13926       1
   13902   13896   13908       1   13902   13911   13923       1   13896   13887
   13899       1   13893   13905   13917       1   13887   13896   13908       1
   13884   13872   13890       1   13872   13851   13875       1   13869   13887
   13899       1   13863   13845   13866       1   13854   13836   13857       1
   13854   13842   13860       1   13851   13872   13890       1   13848   13863
   13881       1   13845   13863   13881       1   13842   13854   13878       1
   13836   13827   13839       1   13836   13854   13878       1   13833   13851
   13875       1   13830   13842   13860       1   13830   13845   13866       1
   13827   13836   13857       1   13824   13827   13839       1   14028   14019
   14031       1   14028   14022   14034       1   14022   14013   14025       1
   14022   14028   14037       1   14019   14028   14037       1   14013   14022
   14034       1   14010   14004   14016       1   14010   14019   14031       1
   14004   13995   14007       1   14001   14013   14025       1   13995   14004
   14016       1   13992   13980   13998       1   13980   13959   13983       1
   13977   13995   14007       1   13971   13953   13974       1   13962   13944
   13965       1   13962   13950   13968       1   13959   13980   13998       1
   13956   13971   13989       1   13953   13971   13989       1   13950   13962
   13986       1   13944   13935   13947       1   13944   13962   13986       1
   13941   13959   13983       1   13938   13950   13968       1   13938   13953
   13974       1   13935   13944   13965       1   13932   13935   13947       1
   14136   14127   14139       1   14136   14130   14142       1   14130   14121
   14133       1   14130   14136   14145       1   14127   14136   14145       1
   14121   14130   14142       1   14118   14112   14124       1   14118   14127
   14139       1   14112   14103   14115       1   14109   14121   14133       1
   14103   14112   14124       1   14100   14088   14106       1   14088   14067
   14091       1   14085   14103   14115       1   14079   14061   14082       1
   14070   14052   14073       1   14070   14058   14076       1   14067   14088
   14106       1   14064   14079   14097       1   14061   14079   14097       1
   14058   14070   14094       1   14052   14043   14055       1   14052   14070
   14094       1   14049   14067   14091       1   14046   14058   14076       1
   14046   14061   14082       1   14043   14052   14073       1   14040   14043
   14055       1   14244   14235   14247       1   14244   14238   14250       1
   14238   14229   14241       1   14238   14244   14253       1   14235   14244
   14253       1   14229   14238   14250       1   14226   14220   14232       1
   14226   14235   14247       1   14220   14211   14223       1   14217   14229
   14241       1   14211   14220   14232       1   14208   14196   14214       1
   14196   14175   14199       1   14193   14211   14223       1   14187   14169
   14190       1   14178   14160   14181       1   14178   14166   14184       1
   14175   14196   14214       1   14172   14187   14205       1   14169   14187
   14205       1   14166   14178   14202       1   14160   14151   14163       1
   14160   14178   14202       1   14157   14175   14199       1   14154   14166
   14184       1   14154   14169   14190       1   14151   14160   14181       1
   14148   14151   14163       1   14352   14343   14355       1   14352   14346
   14358       1   14346   14337   14349       1   14346   14352   14361       1
   14343   14352   14361       1   14337   14346   14358       1   14334   14328
   14340       1   14334   14343   14355       1   14328   14319   14331       1
   14325   14337   14349       1   14319   14328   14340       1   14316   14304
   14322       1   14304   14283   14307       1   14301   14319   14331       1
   14295   14277   14298       1   14286   14268   14289       1   14286   14274
   14292       1   14283   14304   14322       1   14280   14295   14313       1
   14277   14295   14313       1   14274   14286   14310       1   14268   14259
   14271       1   14268   14286   14310       1   14265   14283   14307       1
   14262   14274   14292       1   14262   14277   14298       1   14259   14268
   14289       1   14256   14259   14271       1   14460   14451   14463       1
   14460   14454   14466       1   14454   14445   14457       1   14454   14460
   14469       1   14451   14460   14469       1   14445   14454   14466       1
   14442   14436   14448       1   14442   14451   14463       1   14436   14427
   14439       1   14433   14445   14457       1   14427   14436   14448       1
   14424   14412   14430       1   14412   14391   14415       1   14409   14427
   14439       1   14403   14385   14406       1   14394   14376   14397       1
   14394   14382   14400       1   14391   14412   14430       1   14388   14403
   14421       1   14385   14403   14421       1   14382   14394   14418       1
   14376   14367   14379       1   14376   14394   14418       1   14373   14391
   14415       1   14370   14382   14400       1   14370   14385   14406       1
   14367   14376   14397       1   14364   14367   14379       1   14568   14559
   14571       1   14568   14562   14574       1   14562   14553   14565       1
   14562   14568   14577       1   14559   14568   14577       1   14553   14562
   14574       1   14550   14544   14556       1   14550   14559   14571       1
   14544   14535   14547       1   14541   14553   14565       1   14535   14544
   14556       1   14532   14520   14538       1   14520   14499   14523       1
   14517   14535   14547       1   14511   14493   14514       1   14502   14484
   14505       1   14502   14490   14508       1   14499   14520   14538       1
   14496   14511   14529       1   14493   14511   14529       1   14490   14502
   14526       1   14484   14475   14487       1   14484   14502   14526       1
   14481   14499   14523       1   14478   14490   14508       1   14478   14493
   14514       1   14475   14484   14505       1   14472   14475   14487       1
   14676   14667   14679       1   14676   14670   14682       1   14670   14661
   14673       1   14670   14676   14685       1   14667   14676   14685       1
   14661   14670   14682       1   14658   14652   14664       1   14658   14667
   14679       1   14652   14643   14655       1   14649   14661   14673       1
   14643   14652   14664       1   14640   14628   14646       1   14628   14607
   14631       1   14625   14643   14655       1   14619   14601   14622       1
   14610   14592   14613       1   14610   14598   14616       1   14607   14628
   14646       1   14604   14619   14637       1   14601   14619   14637       1
   14598   14610   14634       1   14592   14583   14595       1   14592   14610
   14634       1   14589   14607   14631       1   14586   14598   14616       1
   14586   14601   14622       1   14583   14592   14613       1   14580   14583
   14595       1   14784   14775   14787       1   14784   14778   14790       1
   14778   14769   14781       1   14778   14784   14793       1   14775   14784
   14793       1   14769   14778   14790       1   14766   14760   14772       1
   14766   14775   14787       1   14760   14751   14763       1   14757   14769
   14781       1   14751   14760   14772       1   14748   14736   14754       1
   14736   14715   14739       1   14733   14751   14763       1   14727   14709
   14730       1   14718   14700   14721       1   14718   14706   14724       1
   14715   14736   14754       1   14712   14727   14745       1   14709   14727
   14745       1   14706   14718   14742       1   14700   14691   14703       1
   14700   14718   14742       1   14697   14715   14739       1   14694   14706
   14724       1   14694   14709   14730       1   14691   14700   14721       1
   14688   14691   14703       1   14892   14883   14895       1   14892   14886
   14898       1   14886   14877   14889       1   14886   14892   14901       1
   14883   14892   14901       1   14877   14886   14898       1   14874   14868
   14880       1   14874   14883   14895       1   14868   14859   14871       1
   14865   14877   14889       1   14859   14868   14880       1   14856   14844
   14862       1   14844   14823   14847       1   14841   14859   14871       1
   14835   14817   14838       1   14826   14808   14829       1   14826   14814
   14832       1   14823   14844   14862       1   14820   14835   14853       1
   14817   14835   14853       1   14814   14826   14850       1   14808   14799
   14811       1   14808   14826   14850       1   14805   14823   14847       1
   14802   14814   14832       1   14802   14817   14838       1   14799   14808
   14829       1   14796   14799   14811       1   15000   14991   15003       1
   15000   14994   15006       1   14994   14985   14997       1   14994   15000
   15009       1   14991   15000   15009       1   14985   14994   15006       1
   14982   14976   14988       1   14982   14991   15003       1   14976   14967
   14979       1   14973   14985   14997       1   14967   14976   14988       1
   14964   14952   14970       1   14952   14931   14955       1   14949   14967
   14979       1   14943   14925   14946       1   14934   14916   14937       1
   14934   14922   14940       1   14931   14952   14970       1   14928   14943
   14961       1   14925   14943   14961       1   14922   14934   14958       1
   14916   14907   14919       1   14916   14934   14958       1   14913   14931
   14955       1   14910   14922   14940       1   14910   14925   14946       1
   14907   14916   14937       1   14904   14907   14919       1   15108   15099
   15111       1   15108   15102   15114       1   15102   15093   15105       1
   15102   15108   15117       1   15099   15108   15117       1   15093   15102
   15114       1   15090   15084   15096       1   15090   15099   15111       1
   15084   15075   15087       1   15081   15093   15105       1   15075   15084
   15096       1   15072   15060   15078       1   15060   15039   15063       1
   15057   15075   15087       1   15051   15033   15054       1   15042   15024
   15045       1   15042   15030   15048       1   15039   15060   15078       1
   15036   15051   15069       1   15033   15051   15069       1   15030   15042
   15066       1   15024   15015   15027       1   15024   15042   15066       1
   15021   15039   15063       1   15018   15030   15048       1   15018   15033
   15054       1   15015   15024   15045       1   15012   15015   15027       1
   15216   15207   15219       1   15216   15210   15222       1   15210   15201
   15213       1   15210   15216   15225       1   15207   15216   15225       1
   15201   15210   15222       1   15198   15192   15204       1   15198   15207
   15219       1   15192   15183   15195       1   15189   15201   15213       1
   15183   15192   15204       1   15180   15168   15186       1   15168   15147
   15171       1   15165   15183   15195       1   15159   15141   15162       1
   15150   15132   15153       1   15150   15138   15156       1   15147   15168
   15186       1   15144   15159   15177       1   15141   15159   15177       1
   15138   15150   15174       1   15132   15123   15135       1   15132   15150
   15174       1   15129   15147   15171       1   15126   15138   15156       1
   15126   15141   15162       1   15123   15132   15153       1   15120   15123
   15135       1   15324   15315   15327       1   15324   15318   15330       1
   15318   15309   15321       1   15318   15324   15333       1   15315   15324
   15333       1   15309   15318   15330       1   15306   15300   15312       1
   15306   15315   15327       1   15300   15291   15303       1   15297   15309
   15321       1   15291   15300   15312       1   15288   15276   15294       1
   15276   15255   15279       1   15273   15291   15303       1   15267   15249
   15270       1   15258   15240   15261       1   15258   15246   15264       1
   15255   15276   15294       1   15252   15267   15285       1   15249   15267
   15285       1   15246   15258   15282       1   15240   15231   15243       1
   15240   15258   15282       1   15237   15255   15279       1   15234   15246
   15264       1   15234   15249   15270       1   15231   15240   15261       1
   15228   15231   15243       1   15432   15423   15435       1   15432   15426
   15438       1   15426   15417   15429       1   15426   15432   15441       1
   15423   15432   15441       1   15417   15426   15438       1   15414   15408
   15420       1   15414   15423   15435       1   15408   15399   15411       1
   15405   15417   15429       1   15399   15408   15420       1   15396   15384
   15402       1   15384   15363   15387       1   15381   15399   15411       1
   15375   15357   15378       1   15366   15348   15369       1   15366   15354
   15372       1   15363   15384   15402       1   15360   15375   15393       1
   15357   15375   15393       1   15354   15366   15390       1   15348   15339
   15351       1   15348   15366   15390       1   15345   15363   15387       1
   15342   15354   15372       1   15342   15357   15378       1   15339   15348
   15369       1   15336   15339   15351       1   15540   15531   15543       1
   15540   15534   15546       1   15534   15525   15537       1   15534   15540
   15549       1   15531   15540   15549       1   15525   15534   15546       1
   15522   15516   15528       1   15522   15531   15543       1   15516   15507
   15519       1   15513   15525   15537       1   15507   15516   15528       1
   15504   15492   15510       1   15492   15471   15495       1   15489   15507
   15519       1   15483   15465   15486       1   15474   15456   15477       1
   15474   15462   15480       1   15471   15492   15510       1   15468   15483
   15501       1   15465   15483   15501       1   15462   15474   15498       1
   15456   15447   15459       1   15456   15474   15498       1   15453   15471
   15495       1   15450   15462   15480       1   15450   15465   15486       1
   15447   15456   15477       1   15444   15447   15459       1   15648   15639
   15651       1   15648   15642   15654       1   15642   15633   15645       1
   15642   15648   15657       1   15639   15648   15657       1   15633   15642
   15654       1   15630   15624   15636       1   15630   15639   15651       1
   15624   15615   15627       1   15621   15633   15645       1   15615   15624
   15636       1   15612   15600   15618       1   15600   15579   15603       1
   15597   15615   15627       1   15591   15573   15594       1   15582   15564
   15585       1   15582   15570   15588       1   15579   15600   15618       1
   15576   15591   15609       1   15573   15591   15609       1   15570   15582
   15606       1   15564   15555   15567       1   15564   15582   15606       1
   15561   15579   15603       1   15558   15570   15588       1   15558   15573
   15594       1   15555   15564   15585       1   15552   15555   15567       1
   15756   15747   15759       1   15756   15750   15762       1   15750   15741
   15753       1   15750   15756   15765       1   15747   15756   15765       1
   15741   15750   15762       1   15738   15732   15744       1   15738   15747
   15759       1   15732   15723   15735       1   15729   15741   15753       1
   15723   15732   15744       1   15720   15708   15726       1   15708   15687
   15711       1   15705   15723   15735       1   15699   15681   15702       1
   15690   15672   15693       1   15690   15678   15696       1   15687   15708
   15726       1   15684   15699   15717       1   15681   15699   15717       1
   15678   15690   15714       1   15672   15663   15675       1   15672   15690
   15714       1   15669   15687   15711       1   15666   15678   15696       1
   15666   15681   15702       1   15663   15672   15693       1   15660   15663
   15675       1   15864   15855   15867       1   15864   15858   15870       1
   15858   15849   15861       1   15858   15864   15873       1   15855   15864
   15873       1   15849   15858   15870       1   15846   15840   15852       1
   15846   15855   15867       1   15840   15831   15843       1   15837   15849
   15861       1   15831   15840   15852       1   15828   15816   15834       1
   15816   15795   15819       1   15813   15831   15843       1   15807   15789
   15810       1   15798   15780   15801       1   15798   15786   15804       1
   15795   15816   15834       1   15792   15807   15825       1   15789   15807
   15825       1   15786   15798   15822       1   15780   15771   15783       1
   15780   15798   15822       1   15777   15795   15819       1   15774   15786
   15804       1   15774   15789   15810       1   15771   15780   15801       1
   15768   15771   15783       1   15972   15963   15975       1   15972   15966
   15978       1   15966   15957   15969       1   15966   15972   15981       1
   15963   15972   15981       1   15957   15966   15978       1   15954   15948
   15960       1   15954   15963   15975       1   15948   15939   15951       1
   15945   15957   15969       1   15939   15948   15960       1   15936   15924
   15942       1   15924   15903   15927       1   15921   15939   15951       1
   15915   15897   15918       1   15906   15888   15909       1   15906   15894
   15912       1   15903   15924   15942       1   15900   15915   15933       1
   15897   15915   15933       1   15894   15906   15930       1   15888   15879
   15891       1   15888   15906   15930       1   15885   15903   15927       1
   15882   15894   15912       1   15882   15897   15918       1   15879   15888
   15909       1   15876   15879   15891       1   16080   16071   16083       1
   16080   16074   16086       1   16074   16065   16077       1   16074   16080
   16089       1   16071   16080   16089       1   16065   16074   16086       1
   16062   16056   16068       1   16062   16071   16083       1   16056   16047
   16059       1   16053   16065   16077       1   16047   16056   16068       1
   16044   16032   16050       1   16032   16011   16035       1   16029   16047
   16059       1   16023   16005   16026       1   16014   15996   16017       1
   16014   16002   16020       1   16011   16032   16050       1   16008   16023
   16041       1   16005   16023   16041       1   16002   16014   16038       1
   15996   15987   15999       1   15996   16014   16038       1   15993   16011
   16035       1   15990   16002   16020       1   15990   16005   16026       1
   15987   15996   16017       1   15984   15987   15999       1   16188   16179
   16191       1   16188   16182   16194       1   16182   16173   16185       1
   16182   16188   16197       1   16179   16188   16197       1   16173   16182
   16194       1   16170   16164   16176       1   16170   16179   16191       1
   16164   16155   16167       1   16161   16173   16185       1   16155   16164
   16176       1   16152   16140   16158       1   16140   16119   16143       1
   16137   16155   16167       1   16131   16113   16134       1   16122   16104
   16125       1   16122   16110   16128       1   16119   16140   16158       1
   16116   16131   16149       1   16113   16131   16149       1   16110   16122
   16146       1   16104   16095   16107       1   16104   16122   16146       1
   16101   16119   16143       1   16098   16110   16128       1   16098   16113
   16134       1   16095   16104   16125       1   16092   16095   16107       1
   16296   16287   16299       1   16296   16290   16302       1   16290   16281
   16293       1   16290   16296   16305       1   16287   16296   16305       1
   16281   16290   16302       1   16278   16272   16284       1   16278   16287
   16299       1   16272   16263   16275       1   16269   16281   16293       1
   16263   16272   16284       1   16260   16248   16266       1   16248   16227
   16251       1   16245   16263   16275       1   16239   16221   16242       1
   16230   16212   16233       1   16230   16218   16236       1   16227   16248
   16266       1   16224   16239   16257       1   16221   16239   16257       1
   16218   16230   16254       1   16212   16203   16215       1   16212   16230
   16254       1   16209   16227   16251       1   16206   16218   16236       1
   16206   16221   16242       1   16203   16212   16233       1   16200   16203
   16215       1   16404   16395   16407       1   16404   16398   16410       1
   16398   16389   16401       1   16398   16404   16413       1   16395   16404
   16413       1   16389   16398   16410       1   16386   16380   16392       1
   16386   16395   16407       1   16380   16371   16383       1   16377   16389
   16401       1   16371   16380   16392       1   16368   16356   16374       1
   16356   16335   16359       1   16353   16371   16383       1   16347   16329
   16350       1   16338   16320   16341       1   16338   16326   16344       1
   16335   16356   16374       1   16332   16347   16365       1   16329   16347
   16365       1   16326   16338   16362       1   16320   16311   16323       1
   16320   16338   16362       1   16317   16335   16359       1   16314   16326
   16344       1   16314   16329   16350       1   16311   16320   16341       1
   16308   16311   16323       1   16512   16503   16515       1   16512   16506
   16518       1   16506   16497   16509       1   16506   16512   16521       1
   16503   16512   16521       1   16497   16506   16518       1   16494   16488
   16500       1   16494   16503   16515       1   16488   16479   16491       1
   16485   16497   16509       1   16479   16488   16500       1   16476   16464
   16482       1   16464   16443   16467       1   16461   16479   16491       1
   16455   16437   16458       1   16446   16428   16449       1   16446   16434
   16452       1   16443   16464   16482       1   16440   16455   16473       1
   16437   16455   16473       1   16434   16446   16470       1   16428   16419
   16431       1   16428   16446   16470       1   16425   16443   16467       1
   16422   16434   16452       1   16422   16437   16458       1   16419   16428
   16449       1   16416   16419   16431       1   16620   16611   16623       1
   16620   16614   16626       1   16614   16605   16617       1   16614   16620
   16629       1   16611   16620   16629       1   16605   16614   16626       1
   16602   16596   16608       1   16602   16611   16623       1   16596   16587
   16599       1   16593   16605   16617       1   16587   16596   16608       1
   16584   16572   16590       1   16572   16551   16575       1   16569   16587
   16599       1   16563   16545   16566       1   16554   16536   16557       1
   16554   16542   16560       1   16551   16572   16590       1   16548   16563
   16581       1   16545   16563   16581       1   16542   16554   16578       1
   16536   16527   16539       1   16536   16554   16578       1   16533   16551
   16575       1   16530   16542   16560       1   16530   16545   16566       1
   16527   16536   16557       1   16524   16527   16539       1   16728   16719
   16731       1   16728   16722   16734       1   16722   16713   16725       1
   16722   16728   16737       1   16719   16728   16737       1   16713   16722
   16734       1   16710   16704   16716       1   16710   16719   16731       1
   16704   16695   16707       1   16701   16713   16725       1   16695   16704
   16716       1   16692   16680   16698       1   16680   16659   16683       1
   16677   16695   16707       1   16671   16653   16674       1   16662   16644
   16665       1   16662   16650   16668       1   16659   16680   16698       1
   16656   16671   16689       1   16653   16671   16689       1   16650   16662
   16686       1   16644   16635   16647       1   16644   16662   16686       1
   16641   16659   16683       1   16638   16650   16668       1   16638   16653
   16674       1   16635   16644   16665       1   16632   16635   16647       1
   16836   16827   16839       1   16836   16830   16842       1   16830   16821
   16833       1   16830   16836   16845       1   16827   16836   16845       1
   16821   16830   16842       1   16818   16812   16824       1   16818   16827
   16839       1   16812   16803   16815       1   16809   16821   16833       1
   16803   16812   16824       1   16800   16788   16806       1   16788   16767
   16791       1   16785   16803   16815       1   16779   16761   16782       1
   16770   16752   16773       1   16770   16758   16776       1   16767   16788
   16806       1   16764   16779   16797       1   16761   16779   16797       1
   16758   16770   16794       1   16752   16743   16755       1   16752   16770
   16794       1   16749   16767   16791       1   16746   16758   16776       1
   16746   16761   16782       1   16743   16752   16773       1   16740   16743
   16755       1   16944   16935   16947       1   16944   16938   16950       1
   16938   16929   16941       1   16938   16944   16953       1   16935   16944
   16953       1   16929   16938   16950       1   16926   16920   16932       1
   16926   16935   16947       1   16920   16911   16923       1   16917   16929
   16941       1   16911   16920   16932       1   16908   16896   16914       1
   16896   16875   16899       1   16893   16911   16923       1   16887   16869
   16890       1   16878   16860   16881       1   16878   16866   16884       1
   16875   16896   16914       1   16872   16887   16905       1   16869   16887
   16905       1   16866   16878   16902       1   16860   16851   16863       1
   16860   16878   16902       1   16857   16875   16899       1   16854   16866
   16884       1   16854   16869   16890       1   16851   16860   16881       1
   16848   16851   16863       1   17052   17043   17055       1   17052   17046
   17058       1   17046   17037   17049       1   17046   17052   17061       1
   17043   17052   17061       1   17037   17046   17058       1   17034   17028
   17040       1   17034   17043   17055       1   17028   17019   17031       1
   17025   17037   17049       1   17019   17028   17040       1   17016   17004
   17022       1   17004   16983   17007       1   17001   17019   17031       1
   16995   16977   16998       1   16986   16968   16989       1   16986   16974
   16992       1   16983   17004   17022       1   16980   16995   17013       1
   16977   16995   17013       1   16974   16986   17010       1   16968   16959
   16971       1   16968   16986   17010       1   16965   16983   17007       1
   16962   16974   16992       1   16962   16977   16998       1   16959   16968
   16989       1   16956   16959   16971       1   17160   17151   17163       1
   17160   17154   17166       1   17154   17145   17157       1   17154   17160
   17169       1   17151   17160   17169       1   17145   17154   17166       1
   17142   17136   17148       1   17142   17151   17163       1   17136   17127
   17139       1   17133   17145   17157       1   17127   17136   17148       1
   17124   17112   17130       1   17112   17091   17115       1   17109   17127
   17139       1   17103   17085   17106       1   17094   17076   17097       1
   17094   17082   17100       1   17091   17112   17130       1   17088   17103
   17121       1   17085   17103   17121       1   17082   17094   17118       1
   17076   17067   17079       1   17076   17094   17118       1   17073   17091
   17115       1   17070   17082   17100       1   17070   17085   17106       1
   17067   17076   17097       1   17064   17067   17079       1   17268   17259
   17271       1   17268   17262   17274       1   17262   17253   17265       1
   17262   17268   17277       1   17259   17268   17277       1   17253   17262
   17274       1   17250   17244   17256       1   17250   17259   17271       1
   17244   17235   17247       1   17241   17253   17265       1   17235   17244
   17256       1   17232   17220   17238       1   17220   17199   17223       1
   17217   17235   17247       1   17211   17193   17214       1   17202   17184
   17205       1   17202   17190   17208       1   17199   17220   17238       1
   17196   17211   17229       1   17193   17211   17229       1   17190   17202
   17226       1   17184   17175   17187       1   17184   17202   17226       1
   17181   17199   17223       1   17178   17190   17208       1   17178   17193
   17214       1   17175   17184   17205       1   17172   17175   17187       1
   17376   17367   17379       1   17376   17370   17382       1   17370   17361
   17373       1   17370   17376   17385       1   17367   17376   17385       1
   17361   17370   17382       1   17358   17352   17364       1   17358   17367
   17379       1   17352   17343   17355       1   17349   17361   17373       1
   17343   17352   17364       1   17340   17328   17346       1   17328   17307
   17331       1   17325   17343   17355       1   17319   17301   17322       1
   17310   17292   17313       1   17310   17298   17316       1   17307   17328
   17346       1   17304   17319   17337       1   17301   17319   17337       1
   17298   17310   17334       1   17292   17283   17295       1   17292   17310
   17334       1   17289   17307   17331       1   17286   17298   17316       1
   17286   17301   17322       1   17283   17292   17313       1   17280   17283
   17295       1   17484   17475   17487       1   17484   17478   17490       1
   17478   17469   17481       1   17478   17484   17493       1   17475   17484
   17493       1   17469   17478   17490       1   17466   17460   17472       1
   17466   17475   17487       1   17460   17451   17463       1   17457   17469
   17481       1   17451   17460   17472       1   17448   17436   17454       1
   17436   17415   17439       1   17433   17451   17463       1   17427   17409
   17430       1   17418   17400   17421       1   17418   17406   17424       1
   17415   17436   17454       1   17412   17427   17445       1   17409   17427
   17445       1   17406   17418   17442       1   17400   17391   17403       1
   17400   17418   17442       1   17397   17415   17439       1   17394   17406
   17424       1   17394   17409   17430       1   17391   17400   17421       1
   17388   17391   17403       1   17592   17583   17595       1   17592   17586
   17598       1   17586   17577   17589       1   17586   17592   17601       1
   17583   17592   17601       1   17577   17586   17598       1   17574   17568
   17580       1   17574   17583   17595       1   17568   17559   17571       1
   17565   17577   17589       1   17559   17568   17580       1   17556   17544
   17562       1   17544   17523   17547       1   17541   17559   17571       1
   17535   17517   17538       1   17526   17508   17529       1   17526   17514
   17532       1   17523   17544   17562       1   17520   17535   17553       1
   17517   17535   17553       1   17514   17526   17550       1   17508   17499
   17511       1   17508   17526   17550       1   17505   17523   17547       1
   17502   17514   17532       1   17502   17517   17538       1   17499   17508
   17529       1   17496   17499   17511       1   17700   17691   17703       1
   17700   17694   17706       1   17694   17685   17697       1   17694   17700
   17709       1   17691   17700   17709       1   17685   17694   17706       1
   17682   17676   17688       1   17682   17691   17703       1   17676   17667
   17679       1   17673   17685   17697       1   17667   17676   17688       1
   17664   17652   17670       1   17652   17631   17655       1   17649   17667
   17679       1   17643   17625   17646       1   17634   17616   17637       1
   17634   17622   17640       1   17631   17652   17670       1   17628   17643
   17661       1   17625   17643   17661       1   17622   17634   17658       1
   17616   17607   17619       1   17616   17634   17658       1   17613   17631
   17655       1   17610   17622   17640       1   17610   17625   17646       1
   17607   17616   17637       1   17604   17607   17619       1   17808   17799
   17811       1   17808   17802   17814       1   17802   17793   17805       1
   17802   17808   17817       1   17799   17808   17817       1   17793   17802
   17814       1   17790   17784   17796       1   17790   17799   17811       1
   17784   17775   17787       1   17781   17793   17805       1   17775   17784
   17796       1   17772   17760   17778       1   17760   17739   17763       1
   17757   17775   17787       1   17751   17733   17754       1   17742   17724
   17745       1   17742   17730   17748       1   17739   17760   17778       1
   17736   17751   17769       1   17733   17751   17769       1   17730   17742
   17766       1   17724   17715   17727       1   17724   17742   17766       1
   17721   17739   17763       1   17718   17730   17748       1   17718   17733
   17754       1   17715   17724   17745       1   17712   17715   17727       1
   17916   17907   17919       1   17916   17910   17922       1   17910   17901
   17913       1   17910   17916   17925       1   17907   17916   17925       1
   17901   17910   17922       1   17898   17892   17904       1   17898   17907
   17919       1   17892   17883   17895       1   17889   17901   17913       1
   17883   17892   17904       1   17880   17868   17886       1   17868   17847
   17871       1   17865   17883   17895       1   17859   17841   17862       1
   17850   17832   17853       1   17850   17838   17856       1   17847   17868
   17886       1   17844   17859   17877       1   17841   17859   17877       1
   17838   17850   17874       1   17832   17823   17835       1   17832   17850
   17874       1   17829   17847   17871       1   17826   17838   17856       1
   17826   17841   17862       1   17823   17832   17853       1   17820   17823
   17835       1   18024   18015   18027       1   18024   18018   18030       1
   18018   18009   18021       1   18018   18024   18033       1   18015   18024
   18033       1   18009   18018   18030       1   18006   18000   18012       1
   18006   18015   18027       1   18000   17991   18003       1   17997   18009
   18021       1   17991   18000   18012       1   17988   17976   17994       1
   17976   17955   17979       1   17973   17991   18003       1   17967   17949
   17970       1   17958   17940   17961       1   17958   17946   17964       1
   17955   17976   17994       1   17952   17967   17985       1   17949   17967
   17985       1   17946   17958   17982       1   17940   17931   17943       1
   17940   17958   17982       1   17937   17955   17979       1   17934   17946
   17964       1   17934   17949   17970       1   17931   17940   17961       1
   17928   17931   17943       1   18132   18123   18135       1   18132   18126
   18138       1   18126   18117   18129       1   18126   18132   18141       1
   18123   18132   18141       1   18117   18126   18138       1   18114   18108
   18120       1   18114   18123   18135       1   18108   18099   18111       1
   18105   18117   18129       1   18099   18108   18120       1   18096   18084
   18102       1   18084   18063   18087       1   18081   18099   18111       1
   18075   18057   18078       1   18066   18048   18069       1   18066   18054
   18072       1   18063   18084   18102       1   18060   18075   18093       1
   18057   18075   18093       1   18054   18066   18090       1   18048   18039
   18051       1   18048   18066   18090       1   18045   18063   18087       1
   18042   18054   18072       1   18042   18057   18078       1   18039   18048
   18069       1   18036   18039   18051       1   18240   18231   18243       1
   18240   18234   18246       1   18234   18225   18237       1   18234   18240
   18249       1   18231   18240   18249       1   18225   18234   18246       1
   18222   18216   18228       1   18222   18231   18243       1   18216   18207
   18219       1   18213   18225   18237       1   18207   18216   18228       1
   18204   18192   18210       1   18192   18171   18195       1   18189   18207
   18219       1   18183   18165   18186       1   18174   18156   18177       1
   18174   18162   18180       1   18171   18192   18210       1   18168   18183
   18201       1   18165   18183   18201       1   18162   18174   18198       1
   18156   18147   18159       1   18156   18174   18198       1   18153   18171
   18195       1   18150   18162   18180       1   18150   18165   18186       1
   18147   18156   18177       1   18144   18147   18159       1   18348   18339
   18351       1   18348   18342   18354       1   18342   18333   18345       1
   18342   18348   18357       1   18339   18348   18357       1   18333   18342
   18354       1   18330   18324   18336       1   18330   18339   18351       1
   18324   18315   18327       1   18321   18333   18345       1   18315   18324
   18336       1   18312   18300   18318       1   18300   18279   18303       1
   18297   18315   18327       1   18291   18273   18294       1   18282   18264
   18285       1   18282   18270   18288       1   18279   18300   18318       1
   18276   18291   18309       1   18273   18291   18309       1   18270   18282
   18306       1   18264   18255   18267       1   18264   18282   18306       1
   18261   18279   18303       1   18258   18270   18288       1   18258   18273
   18294       1   18255   18264   18285       1   18252   18255   18267       1
   18456   18447   18459       1   18456   18450   18462       1   18450   18441
   18453       1   18450   18456   18465       1   18447   18456   18465       1
   18441   18450   18462       1   18438   18432   18444       1   18438   18447
   18459       1   18432   18423   18435       1   18429   18441   18453       1
   18423   18432   18444       1   18420   18408   18426       1   18408   18387
   18411       1   18405   18423   18435       1   18399   18381   18402       1
   18390   18372   18393       1   18390   18378   18396       1   18387   18408
   18426       1   18384   18399   18417       1   18381   18399   18417       1
   18378   18390   18414       1   18372   18363   18375       1   18372   18390
   18414       1   18369   18387   18411       1   18366   18378   18396       1
   18366   18381   18402       1   18363   18372   18393       1   18360   18363
   18375       1   18564   18555   18567       1   18564   18558   18570       1
   18558   18549   18561       1   18558   18564   18573       1   18555   18564
   18573       1   18549   18558   18570       1   18546   18540   18552       1
   18546   18555   18567       1   18540   18531   18543       1   18537   18549
   18561       1   18531   18540   18552       1   18528   18516   18534       1
   18516   18495   18519       1   18513   18531   18543       1   18507   18489
   18510       1   18498   18480   18501       1   18498   18486   18504       1
   18495   18516   18534       1   18492   18507   18525       1   18489   18507
   18525       1   18486   18498   18522       1   18480   18471   18483       1
   18480   18498   18522       1   18477   18495   18519       1   18474   18486
   18504       1   18474   18489   18510       1   18471   18480   18501       1
   18468   18471   18483       1   18672   18663   18675       1   18672   18666
   18678       1   18666   18657   18669       1   18666   18672   18681       1
   18663   18672   18681       1   18657   18666   18678       1   18654   18648
   18660       1   18654   18663   18675       1   18648   18639   18651       1
   18645   18657   18669       1   18639   18648   18660       1   18636   18624
   18642       1   18624   18603   18627       1   18621   18639   18651       1
   18615   18597   18618       1   18606   18588   18609       1   18606   18594
   18612       1   18603   18624   18642       1   18600   18615   18633       1
   18597   18615   18633       1   18594   18606   18630       1   18588   18579
   18591       1   18588   18606   18630       1   18585   18603   18627       1
   18582   18594   18612       1   18582   18597   18618       1   18579   18588
   18609       1   18576   18579   18591       1   18780   18771   18783       1
   18780   18774   18786       1   18774   18765   18777       1   18774   18780
   18789       1   18771   18780   18789       1   18765   18774   18786       1
   18762   18756   18768       1   18762   18771   18783       1   18756   18747
   18759       1   18753   18765   18777       1   18747   18756   18768       1
   18744   18732   18750       1   18732   18711   18735       1   18729   18747
   18759       1   18723   18705   18726       1   18714   18696   18717       1
   18714   18702   18720       1   18711   18732   18750       1   18708   18723
   18741       1   18705   18723   18741       1   18702   18714   18738       1
   18696   18687   18699       1   18696   18714   18738       1   18693   18711
   18735       1   18690   18702   18720       1   18690   18705   18726       1
   18687   18696   18717       1   18684   18687   18699       1   18888   18879
   18891       1   18888   18882   18894       1   18882   18873   18885       1
   18882   18888   18897       1   18879   18888   18897       1   18873   18882
   18894       1   18870   18864   18876       1   18870   18879   18891       1
   18864   18855   18867       1   18861   18873   18885       1   18855   18864
   18876       1   18852   18840   18858       1   18840   18819   18843       1
   18837   18855   18867       1   18831   18813   18834       1   18822   18804
   18825       1   18822   18810   18828       1   18819   18840   18858       1
   18816   18831   18849       1   18813   18831   18849       1   18810   18822
   18846       1   18804   18795   18807       1   18804   18822   18846       1
   18801   18819   18843       1   18798   18810   18828       1   18798   18813
   18834       1   18795   18804   18825       1   18792   18795   18807       1
   18996   18987   18999       1   18996   18990   19002       1   18990   18981
   18993       1   18990   18996   19005       1   18987   18996   19005       1
   18981   18990   19002       1   18978   18972   18984       1   18978   18987
   18999       1   18972   18963   18975       1   18969   18981   18993       1
   18963   18972   18984       1   18960   18948   18966       1   18948   18927
   18951       1   18945   18963   18975       1   18939   18921   18942       1
   18930   18912   18933       1   18930   18918   18936       1   18927   18948
   18966       1   18924   18939   18957       1   18921   18939   18957       1
   18918   18930   18954       1   18912   18903   18915       1   18912   18930
   18954       1   18909   18927   18951       1   18906   18918   18936       1
   18906   18921   18942       1   18903   18912   18933       1   18900   18903
   18915       1   19104   19095   19107       1   19104   19098   19110       1
   19098   19089   19101       1   19098   19104   19113       1   19095   19104
   19113       1   19089   19098   19110       1   19086   19080   19092       1
   19086   19095   19107       1   19080   19071   19083       1   19077   19089
   19101       1   19071   19080   19092       1   19068   19056   19074       1
   19056   19035   19059       1   19053   19071   19083       1   19047   19029
   19050       1   19038   19020   19041       1   19038   19026   19044       1
   19035   19056   19074       1   19032   19047   19065       1   19029   19047
   19065       1   19026   19038   19062       1   19020   19011   19023       1
   19020   19038   19062       1   19017   19035   19059       1   19014   19026
   19044       1   19014   19029   19050       1   19011   19020   19041       1
   19008   19011   19023       1   19212   19203   19215       1   19212   19206
   19218       1   19206   19197   19209       1   19206   19212   19221       1
   19203   19212   19221       1   19197   19206   19218       1   19194   19188
   19200       1   19194   19203   19215       1   19188   19179   19191       1
   19185   19197   19209       1   19179   19188   19200       1   19176   19164
   19182       1   19164   19143   19167       1   19161   19179   19191       1
   19155   19137   19158       1   19146   19128   19149       1   19146   19134
   19152       1   19143   19164   19182       1   19140   19155   19173       1
   19137   19155   19173       1   19134   19146   19170       1   19128   19119
   19131       1   19128   19146   19170       1   19125   19143   19167       1
   19122   19134   19152       1   19122   19137   19158       1   19119   19128
   19149       1   19116   19119   19131       1   19320   19311   19323       1
   19320   19314   19326       1   19314   19305   19317       1   19314   19320
   19329       1   19311   19320   19329       1   19305   19314   19326       1
   19302   19296   19308       1   19302   19311   19323       1   19296   19287
   19299       1   19293   19305   19317       1   19287   19296   19308       1
   19284   19272   19290       1   19272   19251   19275       1   19269   19287
   19299       1   19263   19245   19266       1   19254   19236   19257       1
   19254   19242   19260       1   19251   19272   19290       1   19248   19263
   19281       1   19245   19263   19281       1   19242   19254   19278       1
   19236   19227   19239       1   19236   19254   19278       1   19233   19251
   19275       1   19230   19242   19260       1   19230   19245   19266       1
   19227   19236   19257       1   19224   19227   19239       1   19428   19419
   19431       1   19428   19422   19434       1   19422   19413   19425       1
   19422   19428   19437       1   19419   19428   19437       1   19413   19422
   19434       1   19410   19404   19416       1   19410   19419   19431       1
   19404   19395   19407       1   19401   19413   19425       1   19395   19404
   19416       1   19392   19380   19398       1   19380   19359   19383       1
   19377   19395   19407       1   19371   19353   19374       1   19362   19344
   19365       1   19362   19350   19368       1   19359   19380   19398       1
   19356   19371   19389       1   19353   19371   19389       1   19350   19362
   19386       1   19344   19335   19347       1   19344   19362   19386       1
   19341   19359   19383       1   19338   19350   19368       1   19338   19353
   19374       1   19335   19344   19365       1   19332   19335   19347       1
   19536   19527   19539       1   19536   19530   19542       1   19530   19521
   19533       1   19530   19536   19545       1   19527   19536   19545       1
   19521   19530   19542       1   19518   19512   19524       1   19518   19527
   19539       1   19512   19503   19515       1   19509   19521   19533       1
   19503   19512   19524       1   19500   19488   19506       1   19488   19467
   19491       1   19485   19503   19515       1   19479   19461   19482       1
   19470   19452   19473       1   19470   19458   19476       1   19467   19488
   19506       1   19464   19479   19497       1   19461   19479   19497       1
   19458   19470   19494       1   19452   19443   19455       1   19452   19470
   19494       1   19449   19467   19491       1   19446   19458   19476       1
   19446   19461   19482       1   19443   19452   19473       1   19440   19443
   19455       1   19644   19635   19647       1   19644   19638   19650       1
   19638   19629   19641       1   19638   19644   19653       1   19635   19644
   19653       1   19629   19638   19650       1   19626   19620   19632       1
   19626   19635   19647       1   19620   19611   19623       1   19617   19629
   19641       1   19611   19620   19632       1   19608   19596   19614       1
   19596   19575   19599       1   19593   19611   19623       1   19587   19569
   19590       1   19578   19560   19581       1   19578   19566   19584       1
   19575   19596   19614       1   19572   19587   19605       1   19569   19587
   19605       1   19566   19578   19602       1   19560   19551   19563       1
   19560   19578   19602       1   19557   19575   19599       1   19554   19566
   19584       1   19554   19569   19590       1   19551   19560   19581       1
   19548   19551   19563       1   19752   19743   19755       1   19752   19746
   19758       1   19746   19737   19749       1   19746   19752   19761       1
   19743   19752   19761       1   19737   19746   19758       1   19734   19728
   19740       1   19734   19743   19755       1   19728   19719   19731       1
   19725   19737   19749       1   19719   19728   19740       1   19716   19704
   19722       1   19704   19683   19707       1   19701   19719   19731       1
   19695   19677   19698       1   19686   19668   19689       1   19686   19674
   19692       1   19683   19704   19722       1   19680   19695   19713       1
   19677   19695   19713       1   19674   19686   19710       1   19668   19659
   19671       1   19668   19686   19710       1   19665   19683   19707       1
   19662   19674   19692       1   19662   19677   19698       1   19659   19668
   19689       1   19656   19659   19671       1   19860   19851   19863       1
   19860   19854   19866       1   19854   19845   19857       1   19854   19860
   19869       1   19851   19860   19869       1   19845   19854   19866       1
   19842   19836   19848       1   19842   19851   19863       1   19836   19827
   19839       1   19833   19845   19857       1   19827   19836   19848       1
   19824   19812   19830       1   19812   19791   19815       1   19809   19827
   19839       1   19803   19785   19806       1   19794   19776   19797       1
   19794   19782   19800       1   19791   19812   19830       1   19788   19803
   19821       1   19785   19803   19821       1   19782   19794   19818       1
   19776   19767   19779       1   19776   19794   19818       1   19773   19791
   19815       1   19770   19782   19800       1   19770   19785   19806       1
   19767   19776   19797       1   19764   19767   19779       1   19968   19959
   19971       1   19968   19962   19974       1   19962   19953   19965       1
   19962   19968   19977       1   19959   19968   19977       1   19953   19962
   19974       1   19950   19944   19956       1   19950   19959   19971       1
   19944   19935   19947       1   19941   19953   19965       1   19935   19944
   19956       1   19932   19920   19938       1   19920   19899   19923       1
   19917   19935   19947       1   19911   19893   19914       1   19902   19884
   19905       1   19902   19890   19908       1   19899   19920   19938       1
   19896   19911   19929       1   19893   19911   19929       1   19890   19902
   19926       1   19884   19875   19887       1   19884   19902   19926       1
   19881   19899   19923       1   19878   19890   19908       1   19878   19893
   19914       1   19875   19884   19905       1   19872   19875   19887       1
   20076   20067   20079       1   20076   20070   20082       1   20070   20061
   20073       1   20070   20076   20085       1   20067   20076   20085       1
   20061   20070   20082       1   20058   20052   20064       1   20058   20067
   20079       1   20052   20043   20055       1   20049   20061   20073       1
   20043   20052   20064       1   20040   20028   20046       1   20028   20007
   20031       1   20025   20043   20055       1   20019   20001   20022       1
   20010   19992   20013       1   20010   19998   20016       1   20007   20028
   20046       1   20004   20019   20037       1   20001   20019   20037       1
   19998   20010   20034       1   19992   19983   19995       1   19992   20010
   20034       1   19989   20007   20031       1   19986   19998   20016       1
   19986   20001   20022       1   19983   19992   20013       1   19980   19983
   19995       1   20184   20175   20187       1   20184   20178   20190       1
   20178   20169   20181       1   20178   20184   20193       1   20175   20184
   20193       1   20169   20178   20190       1   20166   20160   20172       1
   20166   20175   20187       1   20160   20151   20163       1   20157   20169
   20181       1   20151   20160   20172       1   20148   20136   20154       1
   20136   20115   20139       1   20133   20151   20163       1   20127   20109
   20130       1   20118   20100   20121       1   20118   20106   20124       1
   20115   20136   20154       1   20112   20127   20145       1   20109   20127
   20145       1   20106   20118   20142       1   20100   20091   20103       1
   20100   20118   20142       1   20097   20115   20139       1   20094   20106
   20124       1   20094   20109   20130       1   20091   20100   20121       1
   20088   20091   20103       1   20292   20283   20295       1   20292   20286
   20298       1   20286   20277   20289       1   20286   20292   20301       1
   20283   20292   20301       1   20277   20286   20298       1   20274   20268
   20280       1   20274   20283   20295       1   20268   20259   20271       1
   20265   20277   20289       1   20259   20268   20280       1   20256   20244
   20262       1   20244   20223   20247       1   20241   20259   20271       1
   20235   20217   20238       1   20226   20208   20229       1   20226   20214
   20232       1   20223   20244   20262       1   20220   20235   20253       1
   20217   20235   20253       1   20214   20226   20250       1   20208   20199
   20211       1   20208   20226   20250       1   20205   20223   20247       1
   20202   20214   20232       1   20202   20217   20238       1   20199   20208
   20229       1   20196   20199   20211       1   20400   20391   20403       1
   20400   20394   20406       1   20394   20385   20397       1   20394   20400
   20409       1   20391   20400   20409       1   20385   20394   20406       1
   20382   20376   20388       1   20382   20391   20403       1   20376   20367
   20379       1   20373   20385   20397       1   20367   20376   20388       1
   20364   20352   20370       1   20352   20331   20355       1   20349   20367
   20379       1   20343   20325   20346       1   20334   20316   20337       1
   20334   20322   20340       1   20331   20352   20370       1   20328   20343
   20361       1   20325   20343   20361       1   20322   20334   20358       1
   20316   20307   20319       1   20316   20334   20358       1   20313   20331
   20355       1   20310   20322   20340       1   20310   20325   20346       1
   20307   20316   20337       1   20304   20307   20319       1   20508   20499
   20511       1   20508   20502   20514       1   20502   20493   20505       1
   20502   20508   20517       1   20499   20508   20517       1   20493   20502
   20514       1   20490   20484   20496       1   20490   20499   20511       1
   20484   20475   20487       1   20481   20493   20505       1   20475   20484
   20496       1   20472   20460   20478       1   20460   20439   20463       1
   20457   20475   20487       1   20451   20433   20454       1   20442   20424
   20445       1   20442   20430   20448       1   20439   20460   20478       1
   20436   20451   20469       1   20433   20451   20469       1   20430   20442
   20466       1   20424   20415   20427       1   20424   20442   20466       1
   20421   20439   20463       1   20418   20430   20448       1   20418   20433
   20454       1   20415   20424   20445       1   20412   20415   20427       1
   20616   20607   20619       1   20616   20610   20622       1   20610   20601
   20613       1   20610   20616   20625       1   20607   20616   20625       1
   20601   20610   20622       1   20598   20592   20604       1   20598   20607
   20619       1   20592   20583   20595       1   20589   20601   20613       1
   20583   20592   20604       1   20580   20568   20586       1   20568   20547
   20571       1   20565   20583   20595       1   20559   20541   20562       1
   20550   20532   20553       1   20550   20538   20556       1   20547   20568
   20586       1   20544   20559   20577       1   20541   20559   20577       1
   20538   20550   20574       1   20532   20523   20535       1   20532   20550
   20574       1   20529   20547   20571       1   20526   20538   20556       1
   20526   20541   20562       1   20523   20532   20553       1   20520   20523
   20535       1   20724   20715   20727       1   20724   20718   20730       1
   20718   20709   20721       1   20718   20724   20733       1   20715   20724
   20733       1   20709   20718   20730       1   20706   20700   20712       1
   20706   20715   20727       1   20700   20691   20703       1   20697   20709
   20721       1   20691   20700   20712       1   20688   20676   20694       1
   20676   20655   20679       1   20673   20691   20703       1   20667   20649
   20670       1   20658   20640   20661       1   20658   20646   20664       1
   20655   20676   20694       1   20652   20667   20685       1   20649   20667
   20685       1   20646   20658   20682       1   20640   20631   20643       1
   20640   20658   20682       1   20637   20655   20679       1   20634   20646
   20664       1   20634   20649   20670       1   20631   20640   20661       1
   20628   20631   20643       1   20832   20823   20835       1   20832   20826
   20838       1   20826   20817   20829       1   20826   20832   20841       1
   20823   20832   20841       1   20817   20826   20838       1   20814   20808
   20820       1   20814   20823   20835       1   20808   20799   20811       1
   20805   20817   20829       1   20799   20808   20820       1   20796   20784
   20802       1   20784   20763   20787       1   20781   20799   20811       1
   20775   20757   20778       1   20766   20748   20769       1   20766   20754
   20772       1   20763   20784   20802       1   20760   20775   20793       1
   20757   20775   20793       1   20754   20766   20790       1   20748   20739
   20751       1   20748   20766   20790       1   20745   20763   20787       1
   20742   20754   20772       1   20742   20757   20778       1   20739   20748
   20769       1   20736   20739   20751       1   20940   20931   20943       1
   20940   20934   20946       1   20934   20925   20937       1   20934   20940
   20949       1   20931   20940   20949       1   20925   20934   20946       1
   20922   20916   20928       1   20922   20931   20943       1   20916   20907
   20919       1   20913   20925   20937       1   20907   20916   20928       1
   20904   20892   20910       1   20892   20871   20895       1   20889   20907
   20919       1   20883   20865   20886       1   20874   20856   20877       1
   20874   20862   20880       1   20871   20892   20910       1   20868   20883
   20901       1   20865   20883   20901       1   20862   20874   20898       1
   20856   20847   20859       1   20856   20874   20898       1   20853   20871
   20895       1   20850   20862   20880       1   20850   20865   20886       1
   20847   20856   20877       1   20844   20847   20859       1   21048   21039
   21051       1   21048   21042   21054       1   21042   21033   21045       1
   21042   21048   21057       1   21039   21048   21057       1   21033   21042
   21054       1   21030   21024   21036       1   21030   21039   21051       1
   21024   21015   21027       1   21021   21033   21045       1   21015   21024
   21036       1   21012   21000   21018       1   21000   20979   21003       1
   20997   21015   21027       1   20991   20973   20994       1   20982   20964
   20985       1   20982   20970   20988       1   20979   21000   21018       1
   20976   20991   21009       1   20973   20991   21009       1   20970   20982
   21006       1   20964   20955   20967       1   20964   20982   21006       1
   20961   20979   21003       1   20958   20970   20988       1   20958   20973
   20994       1   20955   20964   20985       1   20952   20955   20967       1
   21156   21147   21159       1   21156   21150   21162       1   21150   21141
   21153       1   21150   21156   21165       1   21147   21156   21165       1
   21141   21150   21162       1   21138   21132   21144       1   21138   21147
   21159       1   21132   21123   21135       1   21129   21141   21153       1
   21123   21132   21144       1   21120   21108   21126       1   21108   21087
   21111       1   21105   21123   21135       1   21099   21081   21102       1
   21090   21072   21093       1   21090   21078   21096       1   21087   21108
   21126       1   21084   21099   21117       1   21081   21099   21117       1
   21078   21090   21114       1   21072   21063   21075       1   21072   21090
   21114       1   21069   21087   21111       1   21066   21078   21096       1
   21066   21081   21102       1   21063   21072   21093       1   21060   21063
   21075       1   21264   21255   21267       1   21264   21258   21270       1
   21258   21249   21261       1   21258   21264   21273       1   21255   21264
   21273       1   21249   21258   21270       1   21246   21240   21252       1
   21246   21255   21267       1   21240   21231   21243       1   21237   21249
   21261       1   21231   21240   21252       1   21228   21216   21234       1
   21216   21195   21219       1   21213   21231   21243       1   21207   21189
   21210       1   21198   21180   21201       1   21198   21186   21204       1
   21195   21216   21234       1   21192   21207   21225       1   21189   21207
   21225       1   21186   21198   21222       1   21180   21171   21183       1
   21180   21198   21222       1   21177   21195   21219       1   21174   21186
   21204       1   21174   21189   21210       1   21171   21180   21201       1
   21168   21171   21183       1   21372   21363   21375       1   21372   21366
   21378       1   21366   21357   21369       1   21366   21372   21381       1
   21363   21372   21381       1   21357   21366   21378       1   21354   21348
   21360       1   21354   21363   21375       1   21348   21339   21351       1
   21345   21357   21369       1   21339   21348   21360       1   21336   21324
   21342       1   21324   21303   21327       1   21321   21339   21351       1
   21315   21297   21318       1   21306   21288   21309       1   21306   21294
   21312       1   21303   21324   21342       1   21300   21315   21333       1
   21297   21315   21333       1   21294   21306   21330       1   21288   21279
   21291       1   21288   21306   21330       1   21285   21303   21327       1
   21282   21294   21312       1   21282   21297   21318       1   21279   21288
   21309       1   21276   21279   21291       1   21480   21471   21483       1
   21480   21474   21486       1   21474   21465   21477       1   21474   21480
   21489       1   21471   21480   21489       1   21465   21474   21486       1
   21462   21456   21468       1   21462   21471   21483       1   21456   21447
   21459       1   21453   21465   21477       1   21447   21456   21468       1
   21444   21432   21450       1   21432   21411   21435       1   21429   21447
   21459       1   21423   21405   21426       1   21414   21396   21417       1
   21414   21402   21420       1   21411   21432   21450       1   21408   21423
   21441       1   21405   21423   21441       1   21402   21414   21438       1
   21396   21387   21399       1   21396   21414   21438       1   21393   21411
   21435       1   21390   21402   21420       1   21390   21405   21426       1
   21387   21396   21417       1   21384   21387   21399       1   21588   21579
   21591       1   21588   21582   21594       1   21582   21573   21585       1
   21582   21588   21597       1   21579   21588   21597       1   21573   21582
   21594       1   21570   21564   21576       1   21570   21579   21591       1
   21564   21555   21567       1   21561   21573   21585       1   21555   21564
   21576       1   21552   21540   21558       1   21540   21519   21543       1
   21537   21555   21567       1   21531   21513   21534       1   21522   21504
   21525       1   21522   21510   21528       1   21519   21540   21558       1
   21516   21531   21549       1   21513   21531   21549       1   21510   21522
   21546       1   21504   21495   21507       1   21504   21522   21546       1
   21501   21519   21543       1   21498   21510   21528       1   21498   21513
   21534       1   21495   21504   21525       1   21492   21495   21507       1
   21696   21687   21699       1   21696   21690   21702       1   21690   21681
   21693       1   21690   21696   21705       1   21687   21696   21705       1
   21681   21690   21702       1   21678   21672   21684       1   21678   21687
   21699       1   21672   21663   21675       1   21669   21681   21693       1
   21663   21672   21684       1   21660   21648   21666       1   21648   21627
   21651       1   21645   21663   21675       1   21639   21621   21642       1
   21630   21612   21633       1   21630   21618   21636       1   21627   21648
   21666       1   21624   21639   21657       1   21621   21639   21657       1
   21618   21630   21654       1   21612   21603   21615       1   21612   21630
   21654       1   21609   21627   21651       1   21606   21618   21636       1
   21606   21621   21642       1   21603   21612   21633       1   21600   21603
   21615       1   21804   21795   21807       1   21804   21798   21810       1
   21798   21789   21801       1   21798   21804   21813       1   21795   21804
   21813       1   21789   21798   21810       1   21786   21780   21792       1
   21786   21795   21807       1   21780   21771   21783       1   21777   21789
   21801       1   21771   21780   21792       1   21768   21756   21774       1
   21756   21735   21759       1   21753   21771   21783       1   21747   21729
   21750       1   21738   21720   21741       1   21738   21726   21744       1
   21735   21756   21774       1   21732   21747   21765       1   21729   21747
   21765       1   21726   21738   21762       1   21720   21711   21723       1
   21720   21738   21762       1   21717   21735   21759       1   21714   21726
   21744       1   21714   21729   21750       1   21711   21720   21741       1
   21708   21711   21723       1   21912   21903   21915       1   21912   21906
   21918       1   21906   21897   21909       1   21906   21912   21921       1
   21903   21912   21921       1   21897   21906   21918       1   21894   21888
   21900       1   21894   21903   21915       1   21888   21879   21891       1
   21885   21897   21909       1   21879   21888   21900       1   21876   21864
   21882       1   21864   21843   21867       1   21861   21879   21891       1
   21855   21837   21858       1   21846   21828   21849       1   21846   21834
   21852       1   21843   21864   21882       1   21840   21855   21873       1
   21837   21855   21873       1   21834   21846   21870       1   21828   21819
   21831       1   21828   21846   21870       1   21825   21843   21867       1
   21822   21834   21852       1   21822   21837   21858       1   21819   21828
   21849       1   21816   21819   21831       1   22020   22011   22023       1
   22020   22014   22026       1   22014   22005   22017       1   22014   22020
   22029       1   22011   22020   22029       1   22005   22014   22026       1
   22002   21996   22008       1   22002   22011   22023       1   21996   21987
   21999       1   21993   22005   22017       1   21987   21996   22008       1
   21984   21972   21990       1   21972   21951   21975       1   21969   21987
   21999       1   21963   21945   21966       1   21954   21936   21957       1
   21954   21942   21960       1   21951   21972   21990       1   21948   21963
   21981       1   21945   21963   21981       1   21942   21954   21978       1
   21936   21927   21939       1   21936   21954   21978       1   21933   21951
   21975       1   21930   21942   21960       1   21930   21945   21966       1
   21927   21936   21957       1   21924   21927   21939       1   22128   22119
   22131       1   22128   22122   22134       1   22122   22113   22125       1
   22122   22128   22137       1   22119   22128   22137       1   22113   22122
   22134       1   22110   22104   22116       1   22110   22119   22131       1
   22104   22095   22107       1   22101   22113   22125       1   22095   22104
   22116       1   22092   22080   22098       1   22080   22059   22083       1
   22077   22095   22107       1   22071   22053   22074       1   22062   22044
   22065       1   22062   22050   22068       1   22059   22080   22098       1
   22056   22071   22089       1   22053   22071   22089       1   22050   22062
   22086       1   22044   22035   22047       1   22044   22062   22086       1
   22041   22059   22083       1   22038   22050   22068       1   22038   22053
   22074       1   22035   22044   22065       1   22032   22035   22047       1
   22236   22227   22239       1   22236   22230   22242       1   22230   22221
   22233       1   22230   22236   22245       1   22227   22236   22245       1
   22221   22230   22242       1   22218   22212   22224       1   22218   22227
   22239       1   22212   22203   22215       1   22209   22221   22233       1
   22203   22212   22224       1   22200   22188   22206       1   22188   22167
   22191       1   22185   22203   22215       1   22179   22161   22182       1
   22170   22152   22173       1   22170   22158   22176       1   22167   22188
   22206       1   22164   22179   22197       1   22161   22179   22197       1
   22158   22170   22194       1   22152   22143   22155       1   22152   22170
   22194       1   22149   22167   22191       1   22146   22158   22176       1
   22146   22161   22182       1   22143   22152   22173       1   22140   22143
   22155       1   22344   22335   22347       1   22344   22338   22350       1
   22338   22329   22341       1   22338   22344   22353       1   22335   22344
   22353       1   22329   22338   22350       1   22326   22320   22332       1
   22326   22335   22347       1   22320   22311   22323       1   22317   22329
   22341       1   22311   22320   22332       1   22308   22296   22314       1
   22296   22275   22299       1   22293   22311   22323       1   22287   22269
   22290       1   22278   22260   22281       1   22278   22266   22284       1
   22275   22296   22314       1   22272   22287   22305       1   22269   22287
   22305       1   22266   22278   22302       1   22260   22251   22263       1
   22260   22278   22302       1   22257   22275   22299       1   22254   22266
   22284       1   22254   22269   22290       1   22251   22260   22281       1
   22248   22251   22263       1   22452   22443   22455       1   22452   22446
   22458       1   22446   22437   22449       1   22446   22452   22461       1
   22443   22452   22461       1   22437   22446   22458       1   22434   22428
   22440       1   22434   22443   22455       1   22428   22419   22431       1
   22425   22437   22449       1   22419   22428   22440       1   22416   22404
   22422       1   22404   22383   22407       1   22401   22419   22431       1
   22395   22377   22398       1   22386   22368   22389       1   22386   22374
   22392       1   22383   22404   22422       1   22380   22395   22413       1
   22377   22395   22413       1   22374   22386   22410       1   22368   22359
   22371       1   22368   22386   22410       1   22365   22383   22407       1
   22362   22374   22392       1   22362   22377   22398       1   22359   22368
   22389       1   22356   22359   22371       1   22560   22551   22563       1
   22560   22554   22566       1   22554   22545   22557       1   22554   22560
   22569       1   22551   22560   22569       1   22545   22554   22566       1
   22542   22536   22548       1   22542   22551   22563       1   22536   22527
   22539       1   22533   22545   22557       1   22527   22536   22548       1
   22524   22512   22530       1   22512   22491   22515       1   22509   22527
   22539       1   22503   22485   22506       1   22494   22476   22497       1
   22494   22482   22500       1   22491   22512   22530       1   22488   22503
   22521       1   22485   22503   22521       1   22482   22494   22518       1
   22476   22467   22479       1   22476   22494   22518       1   22473   22491
   22515       1   22470   22482   22500       1   22470   22485   22506       1
   22467   22476   22497       1   22464   22467   22479       1   22668   22659
   22671       1   22668   22662   22674       1   22662   22653   22665       1
   22662   22668   22677       1   22659   22668   22677       1   22653   22662
   22674       1   22650   22644   22656       1   22650   22659   22671       1
   22644   22635   22647       1   22641   22653   22665       1   22635   22644
   22656       1   22632   22620   22638       1   22620   22599   22623       1
   22617   22635   22647       1   22611   22593   22614       1   22602   22584
   22605       1   22602   22590   22608       1   22599   22620   22638       1
   22596   22611   22629       1   22593   22611   22629       1   22590   22602
   22626       1   22584   22575   22587       1   22584   22602   22626       1
   22581   22599   22623       1   22578   22590   22608       1   22578   22593
   22614       1   22575   22584   22605       1   22572   22575   22587       1
   22776   22767   22779       1   22776   22770   22782       1   22770   22761
   22773       1   22770   22776   22785       1   22767   22776   22785       1
   22761   22770   22782       1   22758   22752   22764       1   22758   22767
   22779       1   22752   22743   22755       1   22749   22761   22773       1
   22743   22752   22764       1   22740   22728   22746       1   22728   22707
   22731       1   22725   22743   22755       1   22719   22701   22722       1
   22710   22692   22713       1   22710   22698   22716       1   22707   22728
   22746       1   22704   22719   22737       1   22701   22719   22737       1
   22698   22710   22734       1   22692   22683   22695       1   22692   22710
   22734       1   22689   22707   22731       1   22686   22698   22716       1
   22686   22701   22722       1   22683   22692   22713       1   22680   22683
   22695       1   22884   22875   22887       1   22884   22878   22890       1
   22878   22869   22881       1   22878   22884   22893       1   22875   22884
   22893       1   22869   22878   22890       1   22866   22860   22872       1
   22866   22875   22887       1   22860   22851   22863       1   22857   22869
   22881       1   22851   22860   22872       1   22848   22836   22854       1
   22836   22815   22839       1   22833   22851   22863       1   22827   22809
   22830       1   22818   22800   22821       1   22818   22806   22824       1
   22815   22836   22854       1   22812   22827   22845       1   22809   22827
   22845       1   22806   22818   22842       1   22800   22791   22803       1
   22800   22818   22842       1   22797   22815   22839       1   22794   22806
   22824       1   22794   22809   22830       1   22791   22800   22821       1
   22788   22791   22803       1   22992   22983   22995       1   22992   22986
   22998       1   22986   22977   22989       1   22986   22992   23001       1
   22983   22992   23001       1   22977   22986   22998       1   22974   22968
   22980       1   22974   22983   22995       1   22968   22959   22971       1
   22965   22977   22989       1   22959   22968   22980       1   22956   22944
   22962       1   22944   22923   22947       1   22941   22959   22971       1
   22935   22917   22938       1   22926   22908   22929       1   22926   22914
   22932       1   22923   22944   22962       1   22920   22935   22953       1
   22917   22935   22953       1   22914   22926   22950       1   22908   22899
   22911       1   22908   22926   22950       1   22905   22923   22947       1
   22902   22914   22932       1   22902   22917   22938       1   22899   22908
   22929       1   22896   22899   22911       1   23100   23091   23103       1
   23100   23094   23106       1   23094   23085   23097       1   23094   23100
   23109       1   23091   23100   23109       1   23085   23094   23106       1
   23082   23076   23088       1   23082   23091   23103       1   23076   23067
   23079       1   23073   23085   23097       1   23067   23076   23088       1
   23064   23052   23070       1   23052   23031   23055       1   23049   23067
   23079       1   23043   23025   23046       1   23034   23016   23037       1
   23034   23022   23040       1   23031   23052   23070       1   23028   23043
   23061       1   23025   23043   23061       1   23022   23034   23058       1
   23016   23007   23019       1   23016   23034   23058       1   23013   23031
   23055       1   23010   23022   23040       1   23010   23025   23046       1
   23007   23016   23037       1   23004   23007   23019       1   23208   23199
   23211       1   23208   23202   23214       1   23202   23193   23205       1
   23202   23208   23217       1   23199   23208   23217       1   23193   23202
   23214       1   23190   23184   23196       1   23190   23199   23211       1
   23184   23175   23187       1   23181   23193   23205       1   23175   23184
   23196       1   23172   23160   23178       1   23160   23139   23163       1
   23157   23175   23187       1   23151   23133   23154       1   23142   23124
   23145       1   23142   23130   23148       1   23139   23160   23178       1
   23136   23151   23169       1   23133   23151   23169       1   23130   23142
   23166       1   23124   23115   23127       1   23124   23142   23166       1
   23121   23139   23163       1   23118   23130   23148       1   23118   23133
   23154       1   23115   23124   23145       1   23112   23115   23127       1
   23316   23307   23319       1   23316   23310   23322       1   23310   23301
   23313       1   23310   23316   23325       1   23307   23316   23325       1
   23301   23310   23322       1   23298   23292   23304       1   23298   23307
   23319       1   23292   23283   23295       1   23289   23301   23313       1
   23283   23292   23304       1   23280   23268   23286       1   23268   23247
   23271       1   23265   23283   23295       1   23259   23241   23262       1
   23250   23232   23253       1   23250   23238   23256       1   23247   23268
   23286       1   23244   23259   23277       1   23241   23259   23277       1
   23238   23250   23274       1   23232   23223   23235       1   23232   23250
   23274       1   23229   23247   23271       1   23226   23238   23256       1
   23226   23241   23262       1   23223   23232   23253       1   23220   23223
   23235       1   23424   23415   23427       1   23424   23418   23430       1
   23418   23409   23421       1   23418   23424   23433       1   23415   23424
   23433       1   23409   23418   23430       1   23406   23400   23412       1
   23406   23415   23427       1   23400   23391   23403       1   23397   23409
   23421       1   23391   23400   23412       1   23388   23376   23394       1
   23376   23355   23379       1   23373   23391   23403       1   23367   23349
   23370       1   23358   23340   23361       1   23358   23346   23364       1
   23355   23376   23394       1   23352   23367   23385       1   23349   23367
   23385       1   23346   23358   23382       1   23340   23331   23343       1
   23340   23358   23382       1   23337   23355   23379       1   23334   23346
   23364       1   23334   23349   23370       1   23331   23340   23361       1
   23328   23331   23343       1   23532   23523   23535       1   23532   23526
   23538       1   23526   23517   23529       1   23526   23532   23541       1
   23523   23532   23541       1   23517   23526   23538       1   23514   23508
   23520       1   23514   23523   23535       1   23508   23499   23511       1
   23505   23517   23529       1   23499   23508   23520       1   23496   23484
   23502       1   23484   23463   23487       1   23481   23499   23511       1
   23475   23457   23478       1   23466   23448   23469       1   23466   23454
   23472       1   23463   23484   23502       1   23460   23475   23493       1
   23457   23475   23493       1   23454   23466   23490       1   23448   23439
   23451       1   23448   23466   23490       1   23445   23463   23487       1
   23442   23454   23472       1   23442   23457   23478       1   23439   23448
   23469       1   23436   23439   23451       1   23640   23631   23643       1
   23640   23634   23646       1   23634   23625   23637       1   23634   23640
   23649       1   23631   23640   23649       1   23625   23634   23646       1
   23622   23616   23628       1   23622   23631   23643       1   23616   23607
   23619       1   23613   23625   23637       1   23607   23616   23628       1
   23604   23592   23610       1   23592   23571   23595       1   23589   23607
   23619       1   23583   23565   23586       1   23574   23556   23577       1
   23574   23562   23580       1   23571   23592   23610       1   23568   23583
   23601       1   23565   23583   23601       1   23562   23574   23598       1
   23556   23547   23559       1   23556   23574   23598       1   23553   23571
   23595       1   23550   23562   23580       1   23550   23565   23586       1
   23547   23556   23577       1   23544   23547   23559       1   23748   23739
   23751       1   23748   23742   23754       1   23742   23733   23745       1
   23742   23748   23757       1   23739   23748   23757       1   23733   23742
   23754       1   23730   23724   23736       1   23730   23739   23751       1
   23724   23715   23727       1   23721   23733   23745       1   23715   23724
   23736       1   23712   23700   23718       1   23700   23679   23703       1
   23697   23715   23727       1   23691   23673   23694       1   23682   23664
   23685       1   23682   23670   23688       1   23679   23700   23718       1
   23676   23691   23709       1   23673   23691   23709       1   23670   23682
   23706       1   23664   23655   23667       1   23664   23682   23706       1
   23661   23679   23703       1   23658   23670   23688       1   23658   23673
   23694       1   23655   23664   23685       1   23652   23655   23667       1
   23856   23847   23859       1   23856   23850   23862       1   23850   23841
   23853       1   23850   23856   23865       1   23847   23856   23865       1
   23841   23850   23862       1   23838   23832   23844       1   23838   23847
   23859       1   23832   23823   23835       1   23829   23841   23853       1
   23823   23832   23844       1   23820   23808   23826       1   23808   23787
   23811       1   23805   23823   23835       1   23799   23781   23802       1
   23790   23772   23793       1   23790   23778   23796       1   23787   23808
   23826       1   23784   23799   23817       1   23781   23799   23817       1
   23778   23790   23814       1   23772   23763   23775       1   23772   23790
   23814       1   23769   23787   23811       1   23766   23778   23796       1
   23766   23781   23802       1   23763   23772   23793       1   23760   23763
   23775       1   23964   23955   23967       1   23964   23958   23970       1
   23958   23949   23961       1   23958   23964   23973       1   23955   23964
   23973       1   23949   23958   23970       1   23946   23940   23952       1
   23946   23955   23967       1   23940   23931   23943       1   23937   23949
   23961       1   23931   23940   23952       1   23928   23916   23934       1
   23916   23895   23919       1   23913   23931   23943       1   23907   23889
   23910       1   23898   23880   23901       1   23898   23886   23904       1
   23895   23916   23934       1   23892   23907   23925       1   23889   23907
   23925       1   23886   23898   23922       1   23880   23871   23883       1
   23880   23898   23922       1   23877   23895   23919       1   23874   23886
   23904       1   23874   23889   23910       1   23871   23880   23901       1
   23868   23871   23883       1   24072   24063   24075       1   24072   24066
   24078       1   24066   24057   24069       1   24066   24072   24081       1
   24063   24072   24081       1   24057   24066   24078       1   24054   24048
   24060       1   24054   24063   24075       1   24048   24039   24051       1
   24045   24057   24069       1   24039   24048   24060       1   24036   24024
   24042       1   24024   24003   24027       1   24021   24039   24051       1
   24015   23997   24018       1   24006   23988   24009       1   24006   23994
   24012       1   24003   24024   24042       1   24000   24015   24033       1
   23997   24015   24033       1   23994   24006   24030       1   23988   23979
   23991       1   23988   24006   24030       1   23985   24003   24027       1
   23982   23994   24012       1   23982   23997   24018       1   23979   23988
   24009       1   23976   23979   23991       1   24180   24171   24183       1
   24180   24174   24186       1   24174   24165   24177       1   24174   24180
   24189       1   24171   24180   24189       1   24165   24174   24186       1
   24162   24156   24168       1   24162   24171   24183       1   24156   24147
   24159       1   24153   24165   24177       1   24147   24156   24168       1
   24144   24132   24150       1   24132   24111   24135       1   24129   24147
   24159       1   24123   24105   24126       1   24114   24096   24117       1
   24114   24102   24120       1   24111   24132   24150       1   24108   24123
   24141       1   24105   24123   24141       1   24102   24114   24138       1
   24096   24087   24099       1   24096   24114   24138       1   24093   24111
   24135       1   24090   24102   24120       1   24090   24105   24126       1
   24087   24096   24117       1   24084   24087   24099       1   24288   24279
   24291       1   24288   24282   24294       1   24282   24273   24285       1
   24282   24288   24297       1   24279   24288   24297       1   24273   24282
   24294       1   24270   24264   24276       1   24270   24279   24291       1
   24264   24255   24267       1   24261   24273   24285       1   24255   24264
   24276       1   24252   24240   24258       1   24240   24219   24243       1
   24237   24255   24267       1   24231   24213   24234       1   24222   24204
   24225       1   24222   24210   24228       1   24219   24240   24258       1
   24216   24231   24249       1   24213   24231   24249       1   24210   24222
   24246       1   24204   24195   24207       1   24204   24222   24246       1
   24201   24219   24243       1   24198   24210   24228       1   24198   24213
   24234       1   24195   24204   24225       1   24192   24195   24207       1
   24396   24387   24399       1   24396   24390   24402       1   24390   24381
   24393       1   24390   24396   24405       1   24387   24396   24405       1
   24381   24390   24402       1   24378   24372   24384       1   24378   24387
   24399       1   24372   24363   24375       1   24369   24381   24393       1
   24363   24372   24384       1   24360   24348   24366       1   24348   24327
   24351       1   24345   24363   24375       1   24339   24321   24342       1
   24330   24312   24333       1   24330   24318   24336       1   24327   24348
   24366       1   24324   24339   24357       1   24321   24339   24357       1
   24318   24330   24354       1   24312   24303   24315       1   24312   24330
   24354       1   24309   24327   24351       1   24306   24318   24336       1
   24306   24321   24342       1   24303   24312   24333       1   24300   24303
   24315       1   24504   24495   24507       1   24504   24498   24510       1
   24498   24489   24501       1   24498   24504   24513       1   24495   24504
   24513       1   24489   24498   24510       1   24486   24480   24492       1
   24486   24495   24507       1   24480   24471   24483       1   24477   24489
   24501       1   24471   24480   24492       1   24468   24456   24474       1
   24456   24435   24459       1   24453   24471   24483       1   24447   24429
   24450       1   24438   24420   24441       1   24438   24426   24444       1
   24435   24456   24474       1   24432   24447   24465       1   24429   24447
   24465       1   24426   24438   24462       1   24420   24411   24423       1
   24420   24438   24462       1   24417   24435   24459       1   24414   24426
   24444       1   24414   24429   24450       1   24411   24420   24441       1
   24408   24411   24423       1   24612   24603   24615       1   24612   24606
   24618       1   24606   24597   24609       1   24606   24612   24621       1
   24603   24612   24621       1   24597   24606   24618       1   24594   24588
   24600       1   24594   24603   24615       1   24588   24579   24591       1
   24585   24597   24609       1   24579   24588   24600       1   24576   24564
   24582       1   24564   24543   24567       1   24561   24579   24591       1
   24555   24537   24558       1   24546   24528   24549       1   24546   24534
   24552       1   24543   24564   24582       1   24540   24555   24573       1
   24537   24555   24573       1   24534   24546   24570       1   24528   24519
   24531       1   24528   24546   24570       1   24525   24543   24567       1
   24522   24534   24552       1   24522   24537   24558       1   24519   24528
   24549       1   24516   24519   24531       1   24720   24711   24723       1
   24720   24714   24726       1   24714   24705   24717       1   24714   24720
   24729       1   24711   24720   24729       1   24705   24714   24726       1
   24702   24696   24708       1   24702   24711   24723       1   24696   24687
   24699       1   24693   24705   24717       1   24687   24696   24708       1
   24684   24672   24690       1   24672   24651   24675       1   24669   24687
   24699       1   24663   24645   24666       1   24654   24636   24657       1
   24654   24642   24660       1   24651   24672   24690       1   24648   24663
   24681       1   24645   24663   24681       1   24642   24654   24678       1
   24636   24627   24639       1   24636   24654   24678       1   24633   24651
   24675       1   24630   24642   24660       1   24630   24645   24666       1
   24627   24636   24657       1   24624   24627   24639       1   24828   24819
   24831       1   24828   24822   24834       1   24822   24813   24825       1
   24822   24828   24837       1   24819   24828   24837       1   24813   24822
   24834       1   24810   24804   24816       1   24810   24819   24831       1
   24804   24795   24807       1   24801   24813   24825       1   24795   24804
   24816       1   24792   24780   24798       1   24780   24759   24783       1
   24777   24795   24807       1   24771   24753   24774       1   24762   24744
   24765       1   24762   24750   24768       1   24759   24780   24798       1
   24756   24771   24789       1   24753   24771   24789       1   24750   24762
   24786       1   24744   24735   24747       1   24744   24762   24786       1
   24741   24759   24783       1   24738   24750   24768       1   24738   24753
   24774       1   24735   24744   24765       1   24732   24735   24747       1
   24936   24927   24939       1   24936   24930   24942       1   24930   24921
   24933       1   24930   24936   24945       1   24927   24936   24945       1
   24921   24930   24942       1   24918   24912   24924       1   24918   24927
   24939       1   24912   24903   24915       1   24909   24921   24933       1
   24903   24912   24924       1   24900   24888   24906       1   24888   24867
   24891       1   24885   24903   24915       1   24879   24861   24882       1
   24870   24852   24873       1   24870   24858   24876       1   24867   24888
   24906       1   24864   24879   24897       1   24861   24879   24897       1
   24858   24870   24894       1   24852   24843   24855       1   24852   24870
   24894       1   24849   24867   24891       1   24846   24858   24876       1
   24846   24861   24882       1   24843   24852   24873       1   24840   24843
   24855       1   25044   25035   25047       1   25044   25038   25050       1
   25038   25029   25041       1   25038   25044   25053       1   25035   25044
   25053       1   25029   25038   25050       1   25026   25020   25032       1
   25026   25035   25047       1   25020   25011   25023       1   25017   25029
   25041       1   25011   25020   25032       1   25008   24996   25014       1
   24996   24975   24999       1   24993   25011   25023       1   24987   24969
   24990       1   24978   24960   24981       1   24978   24966   24984       1
   24975   24996   25014       1   24972   24987   25005       1   24969   24987
   25005       1   24966   24978   25002       1   24960   24951   24963       1
   24960   24978   25002       1   24957   24975   24999       1   24954   24966
   24984       1   24954   24969   24990       1   24951   24960   24981       1
   24948   24951   24963       1   25152   25143   25155       1   25152   25146
   25158       1   25146   25137   25149       1   25146   25152   25161       1
   25143   25152   25161       1   25137   25146   25158       1   25134   25128
   25140       1   25134   25143   25155       1   25128   25119   25131       1
   25125   25137   25149       1   25119   25128   25140       1   25116   25104
   25122       1   25104   25083   25107       1   25101   25119   25131       1
   25095   25077   25098       1   25086   25068   25089       1   25086   25074
   25092       1   25083   25104   25122       1   25080   25095   25113       1
   25077   25095   25113       1   25074   25086   25110       1   25068   25059
   25071       1   25068   25086   25110       1   25065   25083   25107       1
   25062   25074   25092       1   25062   25077   25098       1   25059   25068
   25089       1   25056   25059   25071       1   25260   25251   25263       1
   25260   25254   25266       1   25254   25245   25257       1   25254   25260
   25269       1   25251   25260   25269       1   25245   25254   25266       1
   25242   25236   25248       1   25242   25251   25263       1   25236   25227
   25239       1   25233   25245   25257       1   25227   25236   25248       1
   25224   25212   25230       1   25212   25191   25215       1   25209   25227
   25239       1   25203   25185   25206       1   25194   25176   25197       1
   25194   25182   25200       1   25191   25212   25230       1   25188   25203
   25221       1   25185   25203   25221       1   25182   25194   25218       1
   25176   25167   25179       1   25176   25194   25218       1   25173   25191
   25215       1   25170   25182   25200       1   25170   25185   25206       1
   25167   25176   25197       1   25164   25167   25179       1   25368   25359
   25371       1   25368   25362   25374       1   25362   25353   25365       1
   25362   25368   25377       1   25359   25368   25377       1   25353   25362
   25374       1   25350   25344   25356       1   25350   25359   25371       1
   25344   25335   25347       1   25341   25353   25365       1   25335   25344
   25356       1   25332   25320   25338       1   25320   25299   25323       1
   25317   25335   25347       1   25311   25293   25314       1   25302   25284
   25305       1   25302   25290   25308       1   25299   25320   25338       1
   25296   25311   25329       1   25293   25311   25329       1   25290   25302
   25326       1   25284   25275   25287       1   25284   25302   25326       1
   25281   25299   25323       1   25278   25290   25308       1   25278   25293
   25314       1   25275   25284   25305       1   25272   25275   25287       1
   25476   25467   25479       1   25476   25470   25482       1   25470   25461
   25473       1   25470   25476   25485       1   25467   25476   25485       1
   25461   25470   25482       1   25458   25452   25464       1   25458   25467
   25479       1   25452   25443   25455       1   25449   25461   25473       1
   25443   25452   25464       1   25440   25428   25446       1   25428   25407
   25431       1   25425   25443   25455       1   25419   25401   25422       1
   25410   25392   25413       1   25410   25398   25416       1   25407   25428
   25446       1   25404   25419   25437       1   25401   25419   25437       1
   25398   25410   25434       1   25392   25383   25395       1   25392   25410
   25434       1   25389   25407   25431       1   25386   25398   25416       1
   25386   25401   25422       1   25383   25392   25413       1   25380   25383
   25395       1   25584   25575   25587       1   25584   25578   25590       1
   25578   25569   25581       1   25578   25584   25593       1   25575   25584
   25593       1   25569   25578   25590       1   25566   25560   25572       1
   25566   25575   25587       1   25560   25551   25563       1   25557   25569
   25581       1   25551   25560   25572       1   25548   25536   25554       1
   25536   25515   25539       1   25533   25551   25563       1   25527   25509
   25530       1   25518   25500   25521       1   25518   25506   25524       1
   25515   25536   25554       1   25512   25527   25545       1   25509   25527
   25545       1   25506   25518   25542       1   25500   25491   25503       1
   25500   25518   25542       1   25497   25515   25539       1   25494   25506
   25524       1   25494   25509   25530       1   25491   25500   25521       1
   25488   25491   25503       1   25692   25683   25695       1   25692   25686
   25698       1   25686   25677   25689       1   25686   25692   25701       1
   25683   25692   25701       1   25677   25686   25698       1   25674   25668
   25680       1   25674   25683   25695       1   25668   25659   25671       1
   25665   25677   25689       1   25659   25668   25680       1   25656   25644
   25662       1   25644   25623   25647       1   25641   25659   25671       1
   25635   25617   25638       1   25626   25608   25629       1   25626   25614
   25632       1   25623   25644   25662       1   25620   25635   25653       1
   25617   25635   25653       1   25614   25626   25650       1   25608   25599
   25611       1   25608   25626   25650       1   25605   25623   25647       1
   25602   25614   25632       1   25602   25617   25638       1   25599   25608
   25629       1   25596   25599   25611       1   25800   25791   25803       1
   25800   25794   25806       1   25794   25785   25797       1   25794   25800
   25809       1   25791   25800   25809       1   25785   25794   25806       1
   25782   25776   25788       1   25782   25791   25803       1   25776   25767
   25779       1   25773   25785   25797       1   25767   25776   25788       1
   25764   25752   25770       1   25752   25731   25755       1   25749   25767
   25779       1   25743   25725   25746       1   25734   25716   25737       1
   25734   25722   25740       1   25731   25752   25770       1   25728   25743
   25761       1   25725   25743   25761       1   25722   25734   25758       1
   25716   25707   25719       1   25716   25734   25758       1   25713   25731
   25755       1   25710   25722   25740       1   25710   25725   25746       1
   25707   25716   25737       1   25704   25707   25719       1   25908   25899
   25911       1   25908   25902   25914       1   25902   25893   25905       1
   25902   25908   25917       1   25899   25908   25917       1   25893   25902
   25914       1   25890   25884   25896       1   25890   25899   25911       1
   25884   25875   25887       1   25881   25893   25905       1   25875   25884
   25896       1   25872   25860   25878       1   25860   25839   25863       1
   25857   25875   25887       1   25851   25833   25854       1   25842   25824
   25845       1   25842   25830   25848       1   25839   25860   25878       1
   25836   25851   25869       1   25833   25851   25869       1   25830   25842
   25866       1   25824   25815   25827       1   25824   25842   25866       1
   25821   25839   25863       1   25818   25830   25848       1   25818   25833
   25854       1   25815   25824   25845       1   25812   25815   25827       1
   26016   26007   26019       1   26016   26010   26022       1   26010   26001
   26013       1   26010   26016   26025       1   26007   26016   26025       1
   26001   26010   26022       1   25998   25992   26004       1   25998   26007
   26019       1   25992   25983   25995       1   25989   26001   26013       1
   25983   25992   26004       1   25980   25968   25986       1   25968   25947
   25971       1   25965   25983   25995       1   25959   25941   25962       1
   25950   25932   25953       1   25950   25938   25956       1   25947   25968
   25986       1   25944   25959   25977       1   25941   25959   25977       1
   25938   25950   25974       1   25932   25923   25935       1   25932   25950
   25974       1   25929   25947   25971       1   25926   25938   25956       1
   25926   25941   25962       1   25923   25932   25953       1   25920   25923
   25935       1   26124   26115   26127       1   26124   26118   26130       1
   26118   26109   26121       1   26118   26124   26133       1   26115   26124
   26133       1   26109   26118   26130       1   26106   26100   26112       1
   26106   26115   26127       1   26100   26091   26103       1   26097   26109
   26121       1   26091   26100   26112       1   26088   26076   26094       1
   26076   26055   26079       1   26073   26091   26103       1   26067   26049
   26070       1   26058   26040   26061       1   26058   26046   26064       1
   26055   26076   26094       1   26052   26067   26085       1   26049   26067
   26085       1   26046   26058   26082       1   26040   26031   26043       1
   26040   26058   26082       1   26037   26055   26079       1   26034   26046
   26064       1   26034   26049   26070       1   26031   26040   26061       1
   26028   26031   26043       1   26232   26223   26235       1   26232   26226
   26238       1   26226   26217   26229       1   26226   26232   26241       1
   26223   26232   26241       1   26217   26226   26238       1   26214   26208
   26220       1   26214   26223   26235       1   26208   26199   26211       1
   26205   26217   26229       1   26199   26208   26220       1   26196   26184
   26202       1   26184   26163   26187       1   26181   26199   26211       1
   26175   26157   26178       1   26166   26148   26169       1   26166   26154
   26172       1   26163   26184   26202       1   26160   26175   26193       1
   26157   26175   26193       1   26154   26166   26190       1   26148   26139
   26151       1   26148   26166   26190       1   26145   26163   26187       1
   26142   26154   26172       1   26142   26157   26178       1   26139   26148
   26169       1   26136   26139   26151       1   26340   26331   26343       1
   26340   26334   26346       1   26334   26325   26337       1   26334   26340
   26349       1   26331   26340   26349       1   26325   26334   26346       1
   26322   26316   26328       1   26322   26331   26343       1   26316   26307
   26319       1   26313   26325   26337       1   26307   26316   26328       1
   26304   26292   26310       1   26292   26271   26295       1   26289   26307
   26319       1   26283   26265   26286       1   26274   26256   26277       1
   26274   26262   26280       1   26271   26292   26310       1   26268   26283
   26301       1   26265   26283   26301       1   26262   26274   26298       1
   26256   26247   26259       1   26256   26274   26298       1   26253   26271
   26295       1   26250   26262   26280       1   26250   26265   26286       1
   26247   26256   26277       1   26244   26247   26259       1   26448   26439
   26451       1   26448   26442   26454       1   26442   26433   26445       1
   26442   26448   26457       1   26439   26448   26457       1   26433   26442
   26454       1   26430   26424   26436       1   26430   26439   26451       1
   26424   26415   26427       1   26421   26433   26445       1   26415   26424
   26436       1   26412   26400   26418       1   26400   26379   26403       1
   26397   26415   26427       1   26391   26373   26394       1   26382   26364
   26385       1   26382   26370   26388       1   26379   26400   26418       1
   26376   26391   26409       1   26373   26391   26409       1   26370   26382
   26406       1   26364   26355   26367       1   26364   26382   26406       1
   26361   26379   26403       1   26358   26370   26388       1   26358   26373
   26394       1   26355   26364   26385       1   26352   26355   26367       1
   26556   26547   26559       1   26556   26550   26562       1   26550   26541
   26553       1   26550   26556   26565       1   26547   26556   26565       1
   26541   26550   26562       1   26538   26532   26544       1   26538   26547
   26559       1   26532   26523   26535       1   26529   26541   26553       1
   26523   26532   26544       1   26520   26508   26526       1   26508   26487
   26511       1   26505   26523   26535       1   26499   26481   26502       1
   26490   26472   26493       1   26490   26478   26496       1   26487   26508
   26526       1   26484   26499   26517       1   26481   26499   26517       1
   26478   26490   26514       1   26472   26463   26475       1   26472   26490
   26514       1   26469   26487   26511       1   26466   26478   26496       1
   26466   26481   26502       1   26463   26472   26493       1   26460   26463
   26475       1   26664   26655   26667       1   26664   26658   26670       1
   26658   26649   26661       1   26658   26664   26673       1   26655   26664
   26673       1   26649   26658   26670       1   26646   26640   26652       1
   26646   26655   26667       1   26640   26631   26643       1   26637   26649
   26661       1   26631   26640   26652       1   26628   26616   26634       1
   26616   26595   26619       1   26613   26631   26643       1   26607   26589
   26610       1   26598   26580   26601       1   26598   26586   26604       1
   26595   26616   26634       1   26592   26607   26625       1   26589   26607
   26625       1   26586   26598   26622       1   26580   26571   26583       1
   26580   26598   26622       1   26577   26595   26619       1   26574   26586
   26604       1   26574   26589   26610       1   26571   26580   26601       1
   26568   26571   26583       1   26772   26763   26775       1   26772   26766
   26778       1   26766   26757   26769       1   26766   26772   26781       1
   26763   26772   26781       1   26757   26766   26778       1   26754   26748
   26760       1   26754   26763   26775       1   26748   26739   26751       1
   26745   26757   26769       1   26739   26748   26760       1   26736   26724
   26742       1   26724   26703   26727       1   26721   26739   26751       1
   26715   26697   26718       1   26706   26688   26709       1   26706   26694
   26712       1   26703   26724   26742       1   26700   26715   26733       1
   26697   26715   26733       1   26694   26706   26730       1   26688   26679
   26691       1   26688   26706   26730       1   26685   26703   26727       1
   26682   26694   26712       1   26682   26697   26718       1   26679   26688
   26709       1   26676   26679   26691       1   26880   26871   26883       1
   26880   26874   26886       1   26874   26865   26877       1   26874   26880
   26889       1   26871   26880   26889       1   26865   26874   26886       1
   26862   26856   26868       1   26862   26871   26883       1   26856   26847
   26859       1   26853   26865   26877       1   26847   26856   26868       1
   26844   26832   26850       1   26832   26811   26835       1   26829   26847
   26859       1   26823   26805   26826       1   26814   26796   26817       1
   26814   26802   26820       1   26811   26832   26850       1   26808   26823
   26841       1   26805   26823   26841       1   26802   26814   26838       1
   26796   26787   26799       1   26796   26814   26838       1   26793   26811
   26835       1   26790   26802   26820       1   26790   26805   26826       1
   26787   26796   26817       1   26784   26787   26799       1   26988   26979
   26991       1   26988   26982   26994       1   26982   26973   26985       1
   26982   26988   26997       1   26979   26988   26997       1   26973   26982
   26994       1   26970   26964   26976       1   26970   26979   26991       1
   26964   26955   26967       1   26961   26973   26985       1   26955   26964
   26976       1   26952   26940   26958       1   26940   26919   26943       1
   26937   26955   26967       1   26931   26913   26934       1   26922   26904
   26925       1   26922   26910   26928       1   26919   26940   26958       1
   26916   26931   26949       1   26913   26931   26949       1   26910   26922
   26946       1   26904   26895   26907       1   26904   26922   26946       1
   26901   26919   26943       1   26898   26910   26928       1   26898   26913
   26934       1   26895   26904   26925       1   26892   26895   26907       1
   27096   27087   27099       1   27096   27090   27102       1   27090   27081
   27093       1   27090   27096   27105       1   27087   27096   27105       1
   27081   27090   27102       1   27078   27072   27084       1   27078   27087
   27099       1   27072   27063   27075       1   27069   27081   27093       1
   27063   27072   27084       1   27060   27048   27066       1   27048   27027
   27051       1   27045   27063   27075       1   27039   27021   27042       1
   27030   27012   27033       1   27030   27018   27036       1   27027   27048
   27066       1   27024   27039   27057       1   27021   27039   27057       1
   27018   27030   27054       1   27012   27003   27015       1   27012   27030
   27054       1   27009   27027   27051       1   27006   27018   27036       1
   27006   27021   27042       1   27003   27012   27033       1   27000   27003
   27015       1   27204   27195   27207       1   27204   27198   27210       1
   27198   27189   27201       1   27198   27204   27213       1   27195   27204
   27213       1   27189   27198   27210       1   27186   27180   27192       1
   27186   27195   27207       1   27180   27171   27183       1   27177   27189
   27201       1   27171   27180   27192       1   27168   27156   27174       1
   27156   27135   27159       1   27153   27171   27183       1   27147   27129
   27150       1   27138   27120   27141       1   27138   27126   27144       1
   27135   27156   27174       1   27132   27147   27165       1   27129   27147
   27165       1   27126   27138   27162       1   27120   27111   27123       1
   27120   27138   27162       1   27117   27135   27159       1   27114   27126
   27144       1   27114   27129   27150       1   27111   27120   27141       1
   27108   27111   27123       1   27312   27303   27315       1   27312   27306
   27318       1   27306   27297   27309       1   27306   27312   27321       1
   27303   27312   27321       1   27297   27306   27318       1   27294   27288
   27300       1   27294   27303   27315       1   27288   27279   27291       1
   27285   27297   27309       1   27279   27288   27300       1   27276   27264
   27282       1   27264   27243   27267       1   27261   27279   27291       1
   27255   27237   27258       1   27246   27228   27249       1   27246   27234
   27252       1   27243   27264   27282       1   27240   27255   27273       1
   27237   27255   27273       1   27234   27246   27270       1   27228   27219
   27231       1   27228   27246   27270       1   27225   27243   27267       1
   27222   27234   27252       1   27222   27237   27258       1   27219   27228
   27249       1   27216   27219   27231       1   27420   27411   27423       1
   27420   27414   27426       1   27414   27405   27417       1   27414   27420
   27429       1   27411   27420   27429       1   27405   27414   27426       1
   27402   27396   27408       1   27402   27411   27423       1   27396   27387
   27399       1   27393   27405   27417       1   27387   27396   27408       1
   27384   27372   27390       1   27372   27351   27375       1   27369   27387
   27399       1   27363   27345   27366       1   27354   27336   27357       1
   27354   27342   27360       1   27351   27372   27390       1   27348   27363
   27381       1   27345   27363   27381       1   27342   27354   27378       1
   27336   27327   27339       1   27336   27354   27378       1   27333   27351
   27375       1   27330   27342   27360       1   27330   27345   27366       1
   27327   27336   27357       1   27324   27327   27339       1   27528   27519
   27531       1   27528   27522   27534       1   27522   27513   27525       1
   27522   27528   27537       1   27519   27528   27537       1   27513   27522
   27534       1   27510   27504   27516       1   27510   27519   27531       1
   27504   27495   27507       1   27501   27513   27525       1   27495   27504
   27516       1   27492   27480   27498       1   27480   27459   27483       1
   27477   27495   27507       1   27471   27453   27474       1   27462   27444
   27465       1   27462   27450   27468       1   27459   27480   27498       1
   27456   27471   27489       1   27453   27471   27489       1   27450   27462
   27486       1   27444   27435   27447       1   27444   27462   27486       1
   27441   27459   27483       1   27438   27450   27468       1   27438   27453
   27474       1   27435   27444   27465       1   27432   27435   27447       1
   27636   27627   27639       1   27636   27630   27642       1   27630   27621
   27633       1   27630   27636   27645       1   27627   27636   27645       1
   27621   27630   27642       1   27618   27612   27624       1   27618   27627
   27639       1   27612   27603   27615       1   27609   27621   27633       1
   27603   27612   27624       1   27600   27588   27606       1   27588   27567
   27591       1   27585   27603   27615       1   27579   27561   27582       1
   27570   27552   27573       1   27570   27558   27576       1   27567   27588
   27606       1   27564   27579   27597       1   27561   27579   27597       1
   27558   27570   27594       1   27552   27543   27555       1   27552   27570
   27594       1   27549   27567   27591       1   27546   27558   27576       1
   27546   27561   27582       1   27543   27552   27573       1   27540   27543
   27555       1   27744   27735   27747       1   27744   27738   27750       1
   27738   27729   27741       1   27738   27744   27753       1   27735   27744
   27753       1   27729   27738   27750       1   27726   27720   27732       1
   27726   27735   27747       1   27720   27711   27723       1   27717   27729
   27741       1   27711   27720   27732       1   27708   27696   27714       1
   27696   27675   27699       1   27693   27711   27723       1   27687   27669
   27690       1   27678   27660   27681       1   27678   27666   27684       1
   27675   27696   27714       1   27672   27687   27705       1   27669   27687
   27705       1   27666   27678   27702       1   27660   27651   27663       1
   27660   27678   27702       1   27657   27675   27699       1   27654   27666
   27684       1   27654   27669   27690       1   27651   27660   27681       1
   27648   27651   27663       1   27852   27843   27855       1   27852   27846
   27858       1   27846   27837   27849       1   27846   27852   27861       1
   27843   27852   27861       1   27837   27846   27858       1   27834   27828
   27840       1   27834   27843   27855       1   27828   27819   27831       1
   27825   27837   27849       1   27819   27828   27840       1   27816   27804
   27822       1   27804   27783   27807       1   27801   27819   27831       1
   27795   27777   27798       1   27786   27768   27789       1   27786   27774
   27792       1   27783   27804   27822       1   27780   27795   27813       1
   27777   27795   27813       1   27774   27786   27810       1   27768   27759
   27771       1   27768   27786   27810       1   27765   27783   27807       1
   27762   27774   27792       1   27762   27777   27798       1   27759   27768
   27789       1   27756   27759   27771       1   27960   27951   27963       1
   27960   27954   27966       1   27954   27945   27957       1   27954   27960
   27969       1   27951   27960   27969       1   27945   27954   27966       1
   27942   27936   27948       1   27942   27951   27963       1   27936   27927
   27939       1   27933   27945   27957       1   27927   27936   27948       1
   27924   27912   27930       1   27912   27891   27915       1   27909   27927
   27939       1   27903   27885   27906       1   27894   27876   27897       1
   27894   27882   27900       1   27891   27912   27930       1   27888   27903
   27921       1   27885   27903   27921       1   27882   27894   27918       1
   27876   27867   27879       1   27876   27894   27918       1   27873   27891
   27915       1   27870   27882   27900       1   27870   27885   27906       1
   27867   27876   27897       1   27864   27867   27879       1   28068   28059
   28071       1   28068   28062   28074       1   28062   28053   28065       1
   28062   28068   28077       1   28059   28068   28077       1   28053   28062
   28074       1   28050   28044   28056       1   28050   28059   28071       1
   28044   28035   28047       1   28041   28053   28065       1   28035   28044
   28056       1   28032   28020   28038       1   28020   27999   28023       1
   28017   28035   28047       1   28011   27993   28014       1   28002   27984
   28005       1   28002   27990   28008       1   27999   28020   28038       1
   27996   28011   28029       1   27993   28011   28029       1   27990   28002
   28026       1   27984   27975   27987       1   27984   28002   28026       1
   27981   27999   28023       1   27978   27990   28008       1   27978   27993
   28014       1   27975   27984   28005       1   27972   27975   27987       1
   28176   28167   28179       1   28176   28170   28182       1   28170   28161
   28173       1   28170   28176   28185       1   28167   28176   28185       1
   28161   28170   28182       1   28158   28152   28164       1   28158   28167
   28179       1   28152   28143   28155       1   28149   28161   28173       1
   28143   28152   28164       1   28140   28128   28146       1   28128   28107
   28131       1   28125   28143   28155       1   28119   28101   28122       1
   28110   28092   28113       1   28110   28098   28116       1   28107   28128
   28146       1   28104   28119   28137       1   28101   28119   28137       1
   28098   28110   28134       1   28092   28083   28095       1   28092   28110
   28134       1   28089   28107   28131       1   28086   28098   28116       1
   28086   28101   28122       1   28083   28092   28113       1   28080   28083
   28095       1   28284   28275   28287       1   28284   28278   28290       1
   28278   28269   28281       1   28278   28284   28293       1   28275   28284
   28293       1   28269   28278   28290       1   28266   28260   28272       1
   28266   28275   28287       1   28260   28251   28263       1   28257   28269
   28281       1   28251   28260   28272       1   28248   28236   28254       1
   28236   28215   28239       1   28233   28251   28263       1   28227   28209
   28230       1   28218   28200   28221       1   28218   28206   28224       1
   28215   28236   28254       1   28212   28227   28245       1   28209   28227
   28245       1   28206   28218   28242       1   28200   28191   28203       1
   28200   28218   28242       1   28197   28215   28239       1   28194   28206
   28224       1   28194   28209   28230       1   28191   28200   28221       1
   28188   28191   28203       1   28392   28383   28395       1   28392   28386
   28398       1   28386   28377   28389       1   28386   28392   28401       1
   28383   28392   28401       1   28377   28386   28398       1   28374   28368
   28380       1   28374   28383   28395       1   28368   28359   28371       1
   28365   28377   28389       1   28359   28368   28380       1   28356   28344
   28362       1   28344   28323   28347       1   28341   28359   28371       1
   28335   28317   28338       1   28326   28308   28329       1   28326   28314
   28332       1   28323   28344   28362       1   28320   28335   28353       1
   28317   28335   28353       1   28314   28326   28350       1   28308   28299
   28311       1   28308   28326   28350       1   28305   28323   28347       1
   28302   28314   28332       1   28302   28317   28338       1   28299   28308
   28329       1   28296   28299   28311       1   28500   28491   28503       1
   28500   28494   28506       1   28494   28485   28497       1   28494   28500
   28509       1   28491   28500   28509       1   28485   28494   28506       1
   28482   28476   28488       1   28482   28491   28503       1   28476   28467
   28479       1   28473   28485   28497       1   28467   28476   28488       1
   28464   28452   28470       1   28452   28431   28455       1   28449   28467
   28479       1   28443   28425   28446       1   28434   28416   28437       1
   28434   28422   28440       1   28431   28452   28470       1   28428   28443
   28461       1   28425   28443   28461       1   28422   28434   28458       1
   28416   28407   28419       1   28416   28434   28458       1   28413   28431
   28455       1   28410   28422   28440       1   28410   28425   28446       1
   28407   28416   28437       1   28404   28407   28419       1   28608   28599
   28611       1   28608   28602   28614       1   28602   28593   28605       1
   28602   28608   28617       1   28599   28608   28617       1   28593   28602
   28614       1   28590   28584   28596       1   28590   28599   28611       1
   28584   28575   28587       1   28581   28593   28605       1   28575   28584
   28596       1   28572   28560   28578       1   28560   28539   28563       1
   28557   28575   28587       1   28551   28533   28554       1   28542   28524
   28545       1   28542   28530   28548       1   28539   28560   28578       1
   28536   28551   28569       1   28533   28551   28569       1   28530   28542
   28566       1   28524   28515   28527       1   28524   28542   28566       1
   28521   28539   28563       1   28518   28530   28548       1   28518   28533
   28554       1   28515   28524   28545       1   28512   28515   28527       1
   28716   28707   28719       1   28716   28710   28722       1   28710   28701
   28713       1   28710   28716   28725       1   28707   28716   28725       1
   28701   28710   28722       1   28698   28692   28704       1   28698   28707
   28719       1   28692   28683   28695       1   28689   28701   28713       1
   28683   28692   28704       1   28680   28668   28686       1   28668   28647
   28671       1   28665   28683   28695       1   28659   28641   28662       1
   28650   28632   28653       1   28650   28638   28656       1   28647   28668
   28686       1   28644   28659   28677       1   28641   28659   28677       1
   28638   28650   28674       1   28632   28623   28635       1   28632   28650
   28674       1   28629   28647   28671       1   28626   28638   28656       1
   28626   28641   28662       1   28623   28632   28653       1   28620   28623
   28635       1   28824   28815   28827       1   28824   28818   28830       1
   28818   28809   28821       1   28818   28824   28833       1   28815   28824
   28833       1   28809   28818   28830       1   28806   28800   28812       1
   28806   28815   28827       1   28800   28791   28803       1   28797   28809
   28821       1   28791   28800   28812       1   28788   28776   28794       1
   28776   28755   28779       1   28773   28791   28803       1   28767   28749
   28770       1   28758   28740   28761       1   28758   28746   28764       1
   28755   28776   28794       1   28752   28767   28785       1   28749   28767
   28785       1   28746   28758   28782       1   28740   28731   28743       1
   28740   28758   28782       1   28737   28755   28779       1   28734   28746
   28764       1   28734   28749   28770       1   28731   28740   28761       1
   28728   28731   28743       1   28932   28923   28935       1   28932   28926
   28938       1   28926   28917   28929       1   28926   28932   28941       1
   28923   28932   28941       1   28917   28926   28938       1   28914   28908
   28920       1   28914   28923   28935       1   28908   28899   28911       1
   28905   28917   28929       1   28899   28908   28920       1   28896   28884
   28902       1   28884   28863   28887       1   28881   28899   28911       1
   28875   28857   28878       1   28866   28848   28869       1   28866   28854
   28872       1   28863   28884   28902       1   28860   28875   28893       1
   28857   28875   28893       1   28854   28866   28890       1   28848   28839
   28851       1   28848   28866   28890       1   28845   28863   28887       1
   28842   28854   28872       1   28842   28857   28878       1   28839   28848
   28869       1   28836   28839   28851       1   29040   29031   29043       1
   29040   29034   29046       1   29034   29025   29037       1   29034   29040
   29049       1   29031   29040   29049       1   29025   29034   29046       1
   29022   29016   29028       1   29022   29031   29043       1   29016   29007
   29019       1   29013   29025   29037       1   29007   29016   29028       1
   29004   28992   29010       1   28992   28971   28995       1   28989   29007
   29019       1   28983   28965   28986       1   28974   28956   28977       1
   28974   28962   28980       1   28971   28992   29010       1   28968   28983
   29001       1   28965   28983   29001       1   28962   28974   28998       1
   28956   28947   28959       1   28956   28974   28998       1   28953   28971
   28995       1   28950   28962   28980       1   28950   28965   28986       1
   28947   28956   28977       1   28944   28947   28959       1   29148   29139
   29151       1   29148   29142   29154       1   29142   29133   29145       1
   29142   29148   29157       1   29139   29148   29157       1   29133   29142
   29154       1   29130   29124   29136       1   29130   29139   29151       1
   29124   29115   29127       1   29121   29133   29145       1   29115   29124
   29136       1   29112   29100   29118       1   29100   29079   29103       1
   29097   29115   29127       1   29091   29073   29094       1   29082   29064
   29085       1   29082   29070   29088       1   29079   29100   29118       1
   29076   29091   29109       1   29073   29091   29109       1   29070   29082
   29106       1   29064   29055   29067       1   29064   29082   29106       1
   29061   29079   29103       1   29058   29070   29088       1   29058   29073
   29094       1   29055   29064   29085       1   29052   29055   29067       1
   29256   29247   29259       1   29256   29250   29262       1   29250   29241
   29253       1   29250   29256   29265       1   29247   29256   29265       1
   29241   29250   29262       1   29238   29232   29244       1   29238   29247
   29259       1   29232   29223   29235       1   29229   29241   29253       1
   29223   29232   29244       1   29220   29208   29226       1   29208   29187
   29211       1   29205   29223   29235       1   29199   29181   29202       1
   29190   29172   29193       1   29190   29178   29196       1   29187   29208
   29226       1   29184   29199   29217       1   29181   29199   29217       1
   29178   29190   29214       1   29172   29163   29175       1   29172   29190
   29214       1   29169   29187   29211       1   29166   29178   29196       1
   29166   29181   29202       1   29163   29172   29193       1   29160   29163
   29175       1   29364   29355   29367       1   29364   29358   29370       1
   29358   29349   29361       1   29358   29364   29373       1   29355   29364
   29373       1   29349   29358   29370       1   29346   29340   29352       1
   29346   29355   29367       1   29340   29331   29343       1   29337   29349
   29361       1   29331   29340   29352       1   29328   29316   29334       1
   29316   29295   29319       1   29313   29331   29343       1   29307   29289
   29310       1   29298   29280   29301       1   29298   29286   29304       1
   29295   29316   29334       1   29292   29307   29325       1   29289   29307
   29325       1   29286   29298   29322       1   29280   29271   29283       1
   29280   29298   29322       1   29277   29295   29319       1   29274   29286
   29304       1   29274   29289   29310       1   29271   29280   29301       1
   29268   29271   29283       1   29472   29463   29475       1   29472   29466
   29478       1   29466   29457   29469       1   29466   29472   29481       1
   29463   29472   29481       1   29457   29466   29478       1   29454   29448
   29460       1   29454   29463   29475       1   29448   29439   29451       1
   29445   29457   29469       1   29439   29448   29460       1   29436   29424
   29442       1   29424   29403   29427       1   29421   29439   29451       1
   29415   29397   29418       1   29406   29388   29409       1   29406   29394
   29412       1   29403   29424   29442       1   29400   29415   29433       1
   29397   29415   29433       1   29394   29406   29430       1   29388   29379
   29391       1   29388   29406   29430       1   29385   29403   29427       1
   29382   29394   29412       1   29382   29397   29418       1   29379   29388
   29409       1   29376   29379   29391       1   29580   29571   29583       1
   29580   29574   29586       1   29574   29565   29577       1   29574   29580
   29589       1   29571   29580   29589       1   29565   29574   29586       1
   29562   29556   29568       1   29562   29571   29583       1   29556   29547
   29559       1   29553   29565   29577       1   29547   29556   29568       1
   29544   29532   29550       1   29532   29511   29535       1   29529   29547
   29559       1   29523   29505   29526       1   29514   29496   29517       1
   29514   29502   29520       1   29511   29532   29550       1   29508   29523
   29541       1   29505   29523   29541       1   29502   29514   29538       1
   29496   29487   29499       1   29496   29514   29538       1   29493   29511
   29535       1   29490   29502   29520       1   29490   29505   29526       1
   29487   29496   29517       1   29484   29487   29499       1   29688   29679
   29691       1   29688   29682   29694       1   29682   29673   29685       1
   29682   29688   29697       1   29679   29688   29697       1   29673   29682
   29694       1   29670   29664   29676       1   29670   29679   29691       1
   29664   29655   29667       1   29661   29673   29685       1   29655   29664
   29676       1   29652   29640   29658       1   29640   29619   29643       1
   29637   29655   29667       1   29631   29613   29634       1   29622   29604
   29625       1   29622   29610   29628       1   29619   29640   29658       1
   29616   29631   29649       1   29613   29631   29649       1   29610   29622
   29646       1   29604   29595   29607       1   29604   29622   29646       1
   29601   29619   29643       1   29598   29610   29628       1   29598   29613
   29634       1   29595   29604   29625       1   29592   29595   29607       1
   29796   29787   29799       1   29796   29790   29802       1   29790   29781
   29793       1   29790   29796   29805       1   29787   29796   29805       1
   29781   29790   29802       1   29778   29772   29784       1   29778   29787
   29799       1   29772   29763   29775       1   29769   29781   29793       1
   29763   29772   29784       1   29760   29748   29766       1   29748   29727
   29751       1   29745   29763   29775       1   29739   29721   29742       1
   29730   29712   29733       1   29730   29718   29736       1   29727   29748
   29766       1   29724   29739   29757       1   29721   29739   29757       1
   29718   29730   29754       1   29712   29703   29715       1   29712   29730
   29754       1   29709   29727   29751       1   29706   29718   29736       1
   29706   29721   29742       1   29703   29712   29733       1   29700   29703
   29715       1   29904   29895   29907       1   29904   29898   29910       1
   29898   29889   29901       1   29898   29904   29913       1   29895   29904
   29913       1   29889   29898   29910       1   29886   29880   29892       1
   29886   29895   29907       1   29880   29871   29883       1   29877   29889
   29901       1   29871   29880   29892       1   29868   29856   29874       1
   29856   29835   29859       1   29853   29871   29883       1   29847   29829
   29850       1   29838   29820   29841       1   29838   29826   29844       1
   29835   29856   29874       1   29832   29847   29865       1   29829   29847
   29865       1   29826   29838   29862       1   29820   29811   29823       1
   29820   29838   29862       1   29817   29835   29859       1   29814   29826
   29844       1   29814   29829   29850       1   29811   29820   29841       1
   29808   29811   29823       1   30012   30003   30015       1   30012   30006
   30018       1   30006   29997   30009       1   30006   30012   30021       1
   30003   30012   30021       1   29997   30006   30018       1   29994   29988
   30000       1   29994   30003   30015       1   29988   29979   29991       1
   29985   29997   30009       1   29979   29988   30000       1   29976   29964
   29982       1   29964   29943   29967       1   29961   29979   29991       1
   29955   29937   29958       1   29946   29928   29949       1   29946   29934
   29952       1   29943   29964   29982       1   29940   29955   29973       1
   29937   29955   29973       1   29934   29946   29970       1   29928   29919
   29931       1   29928   29946   29970       1   29925   29943   29967       1
   29922   29934   29952       1   29922   29937   29958       1   29919   29928
   29949       1   29916   29919   29931       1   30120   30111   30123       1
   30120   30114   30126       1   30114   30105   30117       1   30114   30120
   30129       1   30111   30120   30129       1   30105   30114   30126       1
   30102   30096   30108       1   30102   30111   30123       1   30096   30087
   30099       1   30093   30105   30117       1   30087   30096   30108       1
   30084   30072   30090       1   30072   30051   30075       1   30069   30087
   30099       1   30063   30045   30066       1   30054   30036   30057       1
   30054   30042   30060       1   30051   30072   30090       1   30048   30063
   30081       1   30045   30063   30081       1   30042   30054   30078       1
   30036   30027   30039       1   30036   30054   30078       1   30033   30051
   30075       1   30030   30042   30060       1   30030   30045   30066       1
   30027   30036   30057       1   30024   30027   30039       1   30228   30219
   30231       1   30228   30222   30234       1   30222   30213   30225       1
   30222   30228   30237       1   30219   30228   30237       1   30213   30222
   30234       1   30210   30204   30216       1   30210   30219   30231       1
   30204   30195   30207       1   30201   30213   30225       1   30195   30204
   30216       1   30192   30180   30198       1   30180   30159   30183       1
   30177   30195   30207       1   30171   30153   30174       1   30162   30144
   30165       1   30162   30150   30168       1   30159   30180   30198       1
   30156   30171   30189       1   30153   30171   30189       1   30150   30162
   30186       1   30144   30135   30147       1   30144   30162   30186       1
   30141   30159   30183       1   30138   30150   30168       1   30138   30153
   30174       1   30135   30144   30165       1   30132   30135   30147       1
   30336   30327   30339       1   30336   30330   30342       1   30330   30321
   30333       1   30330   30336   30345       1   30327   30336   30345       1
   30321   30330   30342       1   30318   30312   30324       1   30318   30327
   30339       1   30312   30303   30315       1   30309   30321   30333       1
   30303   30312   30324       1   30300   30288   30306       1   30288   30267
   30291       1   30285   30303   30315       1   30279   30261   30282       1
   30270   30252   30273       1   30270   30258   30276       1   30267   30288
   30306       1   30264   30279   30297       1   30261   30279   30297       1
   30258   30270   30294       1   30252   30243   30255       1   30252   30270
   30294       1   30249   30267   30291       1   30246   30258   30276       1
   30246   30261   30282       1   30243   30252   30273       1   30240   30243
   30255       1   30444   30435   30447       1   30444   30438   30450       1
   30438   30429   30441       1   30438   30444   30453       1   30435   30444
   30453       1   30429   30438   30450       1   30426   30420   30432       1
   30426   30435   30447       1   30420   30411   30423       1   30417   30429
   30441       1   30411   30420   30432       1   30408   30396   30414       1
   30396   30375   30399       1   30393   30411   30423       1   30387   30369
   30390       1   30378   30360   30381       1   30378   30366   30384       1
   30375   30396   30414       1   30372   30387   30405       1   30369   30387
   30405       1   30366   30378   30402       1   30360   30351   30363       1
   30360   30378   30402       1   30357   30375   30399       1   30354   30366
   30384       1   30354   30369   30390       1   30351   30360   30381       1
   30348   30351   30363       1   30552   30543   30555       1   30552   30546
   30558       1   30546   30537   30549       1   30546   30552   30561       1
   30543   30552   30561       1   30537   30546   30558       1   30534   30528
   30540       1   30534   30543   30555       1   30528   30519   30531       1
   30525   30537   30549       1   30519   30528   30540       1   30516   30504
   30522       1   30504   30483   30507       1   30501   30519   30531       1
   30495   30477   30498       1   30486   30468   30489       1   30486   30474
   30492       1   30483   30504   30522       1   30480   30495   30513       1
   30477   30495   30513       1   30474   30486   30510       1   30468   30459
   30471       1   30468   30486   30510       1   30465   30483   30507       1
   30462   30474   30492       1   30462   30477   30498       1   30459   30468
   30489       1   30456   30459   30471       1   30660   30651   30663       1
   30660   30654   30666       1   30654   30645   30657       1   30654   30660
   30669       1   30651   30660   30669       1   30645   30654   30666       1
   30642   30636   30648       1   30642   30651   30663       1   30636   30627
   30639       1   30633   30645   30657       1   30627   30636   30648       1
   30624   30612   30630       1   30612   30591   30615       1   30609   30627
   30639       1   30603   30585   30606       1   30594   30576   30597       1
   30594   30582   30600       1   30591   30612   30630       1   30588   30603
   30621       1   30585   30603   30621       1   30582   30594   30618       1
   30576   30567   30579       1   30576   30594   30618       1   30573   30591
   30615       1   30570   30582   30600       1   30570   30585   30606       1
   30567   30576   30597       1   30564   30567   30579       1   30768   30759
   30771       1   30768   30762   30774       1   30762   30753   30765       1
   30762   30768   30777       1   30759   30768   30777       1   30753   30762
   30774       1   30750   30744   30756       1   30750   30759   30771       1
   30744   30735   30747       1   30741   30753   30765       1   30735   30744
   30756       1   30732   30720   30738       1   30720   30699   30723       1
   30717   30735   30747       1   30711   30693   30714       1   30702   30684
   30705       1   30702   30690   30708       1   30699   30720   30738       1
   30696   30711   30729       1   30693   30711   30729       1   30690   30702
   30726       1   30684   30675   30687       1   30684   30702   30726       1
   30681   30699   30723       1   30678   30690   30708       1   30678   30693
   30714       1   30675   30684   30705       1   30672   30675   30687       1
   30876   30867   30879       1   30876   30870   30882       1   30870   30861
   30873       1   30870   30876   30885       1   30867   30876   30885       1
   30861   30870   30882       1   30858   30852   30864       1   30858   30867
   30879       1   30852   30843   30855       1   30849   30861   30873       1
   30843   30852   30864       1   30840   30828   30846       1   30828   30807
   30831       1   30825   30843   30855       1   30819   30801   30822       1
   30810   30792   30813       1   30810   30798   30816       1   30807   30828
   30846       1   30804   30819   30837       1   30801   30819   30837       1
   30798   30810   30834       1   30792   30783   30795       1   30792   30810
   30834       1   30789   30807   30831       1   30786   30798   30816       1
   30786   30801   30822       1   30783   30792   30813       1   30780   30783
   30795       1   30984   30975   30987       1   30984   30978   30990       1
   30978   30969   30981       1   30978   30984   30993       1   30975   30984
   30993       1   30969   30978   30990       1   30966   30960   30972       1
   30966   30975   30987       1   30960   30951   30963       1   30957   30969
   30981       1   30951   30960   30972       1   30948   30936   30954       1
   30936   30915   30939       1   30933   30951   30963       1   30927   30909
   30930       1   30918   30900   30921       1   30918   30906   30924       1
   30915   30936   30954       1   30912   30927   30945       1   30909   30927
   30945       1   30906   30918   30942       1   30900   30891   30903       1
   30900   30918   30942       1   30897   30915   30939       1   30894   30906
   30924       1   30894   30909   30930       1   30891   30900   30921       1
   30888   30891   30903       1   31092   31083   31095       1   31092   31086
   31098       1   31086   31077   31089       1   31086   31092   31101       1
   31083   31092   31101       1   31077   31086   31098       1   31074   31068
   31080       1   31074   31083   31095       1   31068   31059   31071       1
   31065   31077   31089       1   31059   31068   31080       1   31056   31044
   31062       1   31044   31023   31047       1   31041   31059   31071       1
   31035   31017   31038       1   31026   31008   31029       1   31026   31014
   31032       1   31023   31044   31062       1   31020   31035   31053       1
   31017   31035   31053       1   31014   31026   31050       1   31008   30999
   31011       1   31008   31026   31050       1   31005   31023   31047       1
   31002   31014   31032       1   31002   31017   31038       1   30999   31008
   31029       1   30996   30999   31011       1   31200   31191   31203       1
   31200   31194   31206       1   31194   31185   31197       1   31194   31200
   31209       1   31191   31200   31209       1   31185   31194   31206       1
   31182   31176   31188       1   31182   31191   31203       1   31176   31167
   31179       1   31173   31185   31197       1   31167   31176   31188       1
   31164   31152   31170       1   31152   31131   31155       1   31149   31167
   31179       1   31143   31125   31146       1   31134   31116   31137       1
   31134   31122   31140       1   31131   31152   31170       1   31128   31143
   31161       1   31125   31143   31161       1   31122   31134   31158       1
   31116   31107   31119       1   31116   31134   31158       1   31113   31131
   31155       1   31110   31122   31140       1   31110   31125   31146       1
   31107   31116   31137       1   31104   31107   31119       1   31308   31299
   31311       1   31308   31302   31314       1   31302   31293   31305       1
   31302   31308   31317       1   31299   31308   31317       1   31293   31302
   31314       1   31290   31284   31296       1   31290   31299   31311       1
   31284   31275   31287       1   31281   31293   31305       1   31275   31284
   31296       1   31272   31260   31278       1   31260   31239   31263       1
   31257   31275   31287       1   31251   31233   31254       1   31242   31224
   31245       1   31242   31230   31248       1   31239   31260   31278       1
   31236   31251   31269       1   31233   31251   31269       1   31230   31242
   31266       1   31224   31215   31227       1   31224   31242   31266       1
   31221   31239   31263       1   31218   31230   31248       1   31218   31233
   31254       1   31215   31224   31245       1   31212   31215   31227       1
   31416   31407   31419       1   31416   31410   31422       1   31410   31401
   31413       1   31410   31416   31425       1   31407   31416   31425       1
   31401   31410   31422       1   31398   31392   31404       1   31398   31407
   31419       1   31392   31383   31395       1   31389   31401   31413       1
   31383   31392   31404       1   31380   31368   31386       1   31368   31347
   31371       1   31365   31383   31395       1   31359   31341   31362       1
   31350   31332   31353       1   31350   31338   31356       1   31347   31368
   31386       1   31344   31359   31377       1   31341   31359   31377       1
   31338   31350   31374       1   31332   31323   31335       1   31332   31350
   31374       1   31329   31347   31371       1   31326   31338   31356       1
   31326   31341   31362       1   31323   31332   31353       1   31320   31323
   31335       1   31524   31515   31527       1   31524   31518   31530       1
   31518   31509   31521       1   31518   31524   31533       1   31515   31524
   31533       1   31509   31518   31530       1   31506   31500   31512       1
   31506   31515   31527       1   31500   31491   31503       1   31497   31509
   31521       1   31491   31500   31512       1   31488   31476   31494       1
   31476   31455   31479       1   31473   31491   31503       1   31467   31449
   31470       1   31458   31440   31461       1   31458   31446   31464       1
   31455   31476   31494       1   31452   31467   31485       1   31449   31467
   31485       1   31446   31458   31482       1   31440   31431   31443       1
   31440   31458   31482       1   31437   31455   31479       1   31434   31446
   31464       1   31434   31449   31470       1   31431   31440   31461       1
   31428   31431   31443       1   31632   31623   31635       1   31632   31626
   31638       1   31626   31617   31629       1   31626   31632   31641       1
   31623   31632   31641       1   31617   31626   31638       1   31614   31608
   31620       1   31614   31623   31635       1   31608   31599   31611       1
   31605   31617   31629       1   31599   31608   31620       1   31596   31584
   31602       1   31584   31563   31587       1   31581   31599   31611       1
   31575   31557   31578       1   31566   31548   31569       1   31566   31554
   31572       1   31563   31584   31602       1   31560   31575   31593       1
   31557   31575   31593       1   31554   31566   31590       1   31548   31539
   31551       1   31548   31566   31590       1   31545   31563   31587       1
   31542   31554   31572       1   31542   31557   31578       1   31539   31548
   31569       1   31536   31539   31551       1   31740   31731   31743       1
   31740   31734   31746       1   31734   31725   31737       1   31734   31740
   31749       1   31731   31740   31749       1   31725   31734   31746       1
   31722   31716   31728       1   31722   31731   31743       1   31716   31707
   31719       1   31713   31725   31737       1   31707   31716   31728       1
   31704   31692   31710       1   31692   31671   31695       1   31689   31707
   31719       1   31683   31665   31686       1   31674   31656   31677       1
   31674   31662   31680       1   31671   31692   31710       1   31668   31683
   31701       1   31665   31683   31701       1   31662   31674   31698       1
   31656   31647   31659       1   31656   31674   31698       1   31653   31671
   31695       1   31650   31662   31680       1   31650   31665   31686       1
   31647   31656   31677       1   31644   31647   31659       1   31848   31839
   31851       1   31848   31842   31854       1   31842   31833   31845       1
   31842   31848   31857       1   31839   31848   31857       1   31833   31842
   31854       1   31830   31824   31836       1   31830   31839   31851       1
   31824   31815   31827       1   31821   31833   31845       1   31815   31824
   31836       1   31812   31800   31818       1   31800   31779   31803       1
   31797   31815   31827       1   31791   31773   31794       1   31782   31764
   31785       1   31782   31770   31788       1   31779   31800   31818       1
   31776   31791   31809       1   31773   31791   31809       1   31770   31782
   31806       1   31764   31755   31767       1   31764   31782   31806       1
   31761   31779   31803       1   31758   31770   31788       1   31758   31773
   31794       1   31755   31764   31785       1   31752   31755   31767       1
   31956   31947   31959       1   31956   31950   31962       1   31950   31941
   31953       1   31950   31956   31965       1   31947   31956   31965       1
   31941   31950   31962       1   31938   31932   31944       1   31938   31947
   31959       1   31932   31923   31935       1   31929   31941   31953       1
   31923   31932   31944       1   31920   31908   31926       1   31908   31887
   31911       1   31905   31923   31935       1   31899   31881   31902       1
   31890   31872   31893       1   31890   31878   31896       1   31887   31908
   31926       1   31884   31899   31917       1   31881   31899   31917       1
   31878   31890   31914       1   31872   31863   31875       1   31872   31890
   31914       1   31869   31887   31911       1   31866   31878   31896       1
   31866   31881   31902       1   31863   31872   31893       1   31860   31863
   31875       1   32064   32055   32067       1   32064   32058   32070       1
   32058   32049   32061       1   32058   32064   32073       1   32055   32064
   32073       1   32049   32058   32070       1   32046   32040   32052       1
   32046   32055   32067       1   32040   32031   32043       1   32037   32049
   32061       1   32031   32040   32052       1   32028   32016   32034       1
   32016   31995   32019       1   32013   32031   32043       1   32007   31989
   32010       1   31998   31980   32001       1   31998   31986   32004       1
   31995   32016   32034       1   31992   32007   32025       1   31989   32007
   32025       1   31986   31998   32022       1   31980   31971   31983       1
   31980   31998   32022       1   31977   31995   32019       1   31974   31986
   32004       1   31974   31989   32010       1   31971   31980   32001       1
   31968   31971   31983       1   32172   32163   32175       1   32172   32166
   32178       1   32166   32157   32169       1   32166   32172   32181       1
   32163   32172   32181       1   32157   32166   32178       1   32154   32148
   32160       1   32154   32163   32175       1   32148   32139   32151       1
   32145   32157   32169       1   32139   32148   32160       1   32136   32124
   32142       1   32124   32103   32127       1   32121   32139   32151       1
   32115   32097   32118       1   32106   32088   32109       1   32106   32094
   32112       1   32103   32124   32142       1   32100   32115   32133       1
   32097   32115   32133       1   32094   32106   32130       1   32088   32079
   32091       1   32088   32106   32130       1   32085   32103   32127       1
   32082   32094   32112       1   32082   32097   32118       1   32079   32088
   32109       1   32076   32079   32091       1   32280   32271   32283       1
   32280   32274   32286       1   32274   32265   32277       1   32274   32280
   32289       1   32271   32280   32289       1   32265   32274   32286       1
   32262   32256   32268       1   32262   32271   32283       1   32256   32247
   32259       1   32253   32265   32277       1   32247   32256   32268       1
   32244   32232   32250       1   32232   32211   32235       1   32229   32247
   32259       1   32223   32205   32226       1   32214   32196   32217       1
   32214   32202   32220       1   32211   32232   32250       1   32208   32223
   32241       1   32205   32223   32241       1   32202   32214   32238       1
   32196   32187   32199       1   32196   32214   32238       1   32193   32211
   32235       1   32190   32202   32220       1   32190   32205   32226       1
   32187   32196   32217       1   32184   32187   32199       1   32388   32379
   32391       1   32388   32382   32394       1   32382   32373   32385       1
   32382   32388   32397       1   32379   32388   32397       1   32373   32382
   32394       1   32370   32364   32376       1   32370   32379   32391       1
   32364   32355   32367       1   32361   32373   32385       1   32355   32364
   32376       1   32352   32340   32358       1   32340   32319   32343       1
   32337   32355   32367       1   32331   32313   32334       1   32322   32304
   32325       1   32322   32310   32328       1   32319   32340   32358       1
   32316   32331   32349       1   32313   32331   32349       1   32310   32322
   32346       1   32304   32295   32307       1   32304   32322   32346       1
   32301   32319   32343       1   32298   32310   32328       1   32298   32313
   32334       1   32295   32304   32325       1   32292   32295   32307       1
   32496   32487   32499       1   32496   32490   32502       1   32490   32481
   32493       1   32490   32496   32505       1   32487   32496   32505       1
   32481   32490   32502       1   32478   32472   32484       1   32478   32487
   32499       1   32472   32463   32475       1   32469   32481   32493       1
   32463   32472   32484       1   32460   32448   32466       1   32448   32427
   32451       1   32445   32463   32475       1   32439   32421   32442       1
   32430   32412   32433       1   32430   32418   32436       1   32427   32448
   32466       1   32424   32439   32457       1   32421   32439   32457       1
   32418   32430   32454       1   32412   32403   32415       1   32412   32430
   32454       1   32409   32427   32451       1   32406   32418   32436       1
   32406   32421   32442       1   32403   32412   32433       1   32400   32403
   32415       1   32604   32595   32607       1   32604   32598   32610       1
   32598   32589   32601       1   32598   32604   32613       1   32595   32604
   32613       1   32589   32598   32610       1   32586   32580   32592       1
   32586   32595   32607       1   32580   32571   32583       1   32577   32589
   32601       1   32571   32580   32592       1   32568   32556   32574       1
   32556   32535   32559       1   32553   32571   32583       1   32547   32529
   32550       1   32538   32520   32541       1   32538   32526   32544       1
   32535   32556   32574       1   32532   32547   32565       1   32529   32547
   32565       1   32526   32538   32562       1   32520   32511   32523       1
   32520   32538   32562       1   32517   32535   32559       1   32514   32526
   32544       1   32514   32529   32550       1   32511   32520   32541       1
   32508   32511   32523       1   32712   32703   32715       1   32712   32706
   32718       1   32706   32697   32709       1   32706   32712   32721       1
   32703   32712   32721       1   32697   32706   32718       1   32694   32688
   32700       1   32694   32703   32715       1   32688   32679   32691       1
   32685   32697   32709       1   32679   32688   32700       1   32676   32664
   32682       1   32664   32643   32667       1   32661   32679   32691       1
   32655   32637   32658       1   32646   32628   32649       1   32646   32634
   32652       1   32643   32664   32682       1   32640   32655   32673       1
   32637   32655   32673       1   32634   32646   32670       1   32628   32619
   32631       1   32628   32646   32670       1   32625   32643   32667       1
   32622   32634   32652       1   32622   32637   32658       1   32619   32628
   32649       1   32616   32619   32631       1   32820   32811   32823       1
   32820   32814   32826       1   32814   32805   32817       1   32814   32820
   32829       1   32811   32820   32829       1   32805   32814   32826       1
   32802   32796   32808       1   32802   32811   32823       1   32796   32787
   32799       1   32793   32805   32817       1   32787   32796   32808       1
   32784   32772   32790       1   32772   32751   32775       1   32769   32787
   32799       1   32763   32745   32766       1   32754   32736   32757       1
   32754   32742   32760       1   32751   32772   32790       1   32748   32763
   32781       1   32745   32763   32781       1   32742   32754   32778       1
   32736   32727   32739       1   32736   32754   32778       1   32733   32751
   32775       1   32730   32742   32760       1   32730   32745   32766       1
   32727   32736   32757       1   32724   32727   32739       1   32928   32919
   32931       1   32928   32922   32934       1   32922   32913   32925       1
   32922   32928   32937       1   32919   32928   32937       1   32913   32922
   32934       1   32910   32904   32916       1   32910   32919   32931       1
   32904   32895   32907       1   32901   32913   32925       1   32895   32904
   32916       1   32892   32880   32898       1   32880   32859   32883       1
   32877   32895   32907       1   32871   32853   32874       1   32862   32844
   32865       1   32862   32850   32868       1   32859   32880   32898       1
   32856   32871   32889       1   32853   32871   32889       1   32850   32862
   32886       1   32844   32835   32847       1   32844   32862   32886       1
   32841   32859   32883       1   32838   32850   32868       1   32838   32853
   32874       1   32835   32844   32865       1   32832   32835   32847       1
   33036   33027   33039       1   33036   33030   33042       1   33030   33021
   33033       1   33030   33036   33045       1   33027   33036   33045       1
   33021   33030   33042       1   33018   33012   33024       1   33018   33027
   33039       1   33012   33003   33015       1   33009   33021   33033       1
   33003   33012   33024       1   33000   32988   33006       1   32988   32967
   32991       1   32985   33003   33015       1   32979   32961   32982       1
   32970   32952   32973       1   32970   32958   32976       1   32967   32988
   33006       1   32964   32979   32997       1   32961   32979   32997       1
   32958   32970   32994       1   32952   32943   32955       1   32952   32970
   32994       1   32949   32967   32991       1   32946   32958   32976       1
   32946   32961   32982       1   32943   32952   32973       1   32940   32943
   32955       1   33144   33135   33147       1   33144   33138   33150       1
   33138   33129   33141       1   33138   33144   33153       1   33135   33144
   33153       1   33129   33138   33150       1   33126   33120   33132       1
   33126   33135   33147       1   33120   33111   33123       1   33117   33129
   33141       1   33111   33120   33132       1   33108   33096   33114       1
   33096   33075   33099       1   33093   33111   33123       1   33087   33069
   33090       1   33078   33060   33081       1   33078   33066   33084       1
   33075   33096   33114       1   33072   33087   33105       1   33069   33087
   33105       1   33066   33078   33102       1   33060   33051   33063       1
   33060   33078   33102       1   33057   33075   33099       1   33054   33066
   33084       1   33054   33069   33090       1   33051   33060   33081       1
   33048   33051   33063       1   33252   33243   33255       1   33252   33246
   33258       1   33246   33237   33249       1   33246   33252   33261       1
   33243   33252   33261       1   33237   33246   33258       1   33234   33228
   33240       1   33234   33243   33255       1   33228   33219   33231       1
   33225   33237   33249       1   33219   33228   33240       1   33216   33204
   33222       1   33204   33183   33207       1   33201   33219   33231       1
   33195   33177   33198       1   33186   33168   33189       1   33186   33174
   33192       1   33183   33204   33222       1   33180   33195   33213       1
   33177   33195   33213       1   33174   33186   33210       1   33168   33159
   33171       1   33168   33186   33210       1   33165   33183   33207       1
   33162   33174   33192       1   33162   33177   33198       1   33159   33168
   33189       1   33156   33159   33171       1   33360   33351   33363       1
   33360   33354   33366       1   33354   33345   33357       1   33354   33360
   33369       1   33351   33360   33369       1   33345   33354   33366       1
   33342   33336   33348       1   33342   33351   33363       1   33336   33327
   33339       1   33333   33345   33357       1   33327   33336   33348       1
   33324   33312   33330       1   33312   33291   33315       1   33309   33327
   33339       1   33303   33285   33306       1   33294   33276   33297       1
   33294   33282   33300       1   33291   33312   33330       1   33288   33303
   33321       1   33285   33303   33321       1   33282   33294   33318       1
   33276   33267   33279       1   33276   33294   33318       1   33273   33291
   33315       1   33270   33282   33300       1   33270   33285   33306       1
   33267   33276   33297       1   33264   33267   33279       1   33468   33459
   33471       1   33468   33462   33474       1   33462   33453   33465       1
   33462   33468   33477       1   33459   33468   33477       1   33453   33462
   33474       1   33450   33444   33456       1   33450   33459   33471       1
   33444   33435   33447       1   33441   33453   33465       1   33435   33444
   33456       1   33432   33420   33438       1   33420   33399   33423       1
   33417   33435   33447       1   33411   33393   33414       1   33402   33384
   33405       1   33402   33390   33408       1   33399   33420   33438       1
   33396   33411   33429       1   33393   33411   33429       1   33390   33402
   33426       1   33384   33375   33387       1   33384   33402   33426       1
   33381   33399   33423       1   33378   33390   33408       1   33378   33393
   33414       1   33375   33384   33405       1   33372   33375   33387       1
   33576   33567   33579       1   33576   33570   33582       1   33570   33561
   33573       1   33570   33576   33585       1   33567   33576   33585       1
   33561   33570   33582       1   33558   33552   33564       1   33558   33567
   33579       1   33552   33543   33555       1   33549   33561   33573       1
   33543   33552   33564       1   33540   33528   33546       1   33528   33507
   33531       1   33525   33543   33555       1   33519   33501   33522       1
   33510   33492   33513       1   33510   33498   33516       1   33507   33528
   33546       1   33504   33519   33537       1   33501   33519   33537       1
   33498   33510   33534       1   33492   33483   33495       1   33492   33510
   33534       1   33489   33507   33531       1   33486   33498   33516       1
   33486   33501   33522       1   33483   33492   33513       1   33480   33483
   33495       1   33684   33675   33687       1   33684   33678   33690       1
   33678   33669   33681       1   33678   33684   33693       1   33675   33684
   33693       1   33669   33678   33690       1   33666   33660   33672       1
   33666   33675   33687       1   33660   33651   33663       1   33657   33669
   33681       1   33651   33660   33672       1   33648   33636   33654       1
   33636   33615   33639       1   33633   33651   33663       1   33627   33609
   33630       1   33618   33600   33621       1   33618   33606   33624       1
   33615   33636   33654       1   33612   33627   33645       1   33609   33627
   33645       1   33606   33618   33642       1   33600   33591   33603       1
   33600   33618   33642       1   33597   33615   33639       1   33594   33606
   33624       1   33594   33609   33630       1   33591   33600   33621       1
   33588   33591   33603       1   33792   33783   33795       1   33792   33786
   33798       1   33786   33777   33789       1   33786   33792   33801       1
   33783   33792   33801       1   33777   33786   33798       1   33774   33768
   33780       1   33774   33783   33795       1   33768   33759   33771       1
   33765   33777   33789       1   33759   33768   33780       1   33756   33744
   33762       1   33744   33723   33747       1   33741   33759   33771       1
   33735   33717   33738       1   33726   33708   33729       1   33726   33714
   33732       1   33723   33744   33762       1   33720   33735   33753       1
   33717   33735   33753       1   33714   33726   33750       1   33708   33699
   33711       1   33708   33726   33750       1   33705   33723   33747       1
   33702   33714   33732       1   33702   33717   33738       1   33699   33708
   33729       1   33696   33699   33711       1   33900   33891   33903       1
   33900   33894   33906       1   33894   33885   33897       1   33894   33900
   33909       1   33891   33900   33909       1   33885   33894   33906       1
   33882   33876   33888       1   33882   33891   33903       1   33876   33867
   33879       1   33873   33885   33897       1   33867   33876   33888       1
   33864   33852   33870       1   33852   33831   33855       1   33849   33867
   33879       1   33843   33825   33846       1   33834   33816   33837       1
   33834   33822   33840       1   33831   33852   33870       1   33828   33843
   33861       1   33825   33843   33861       1   33822   33834   33858       1
   33816   33807   33819       1   33816   33834   33858       1   33813   33831
   33855       1   33810   33822   33840       1   33810   33825   33846       1
   33807   33816   33837       1   33804   33807   33819       1   34008   33999
   34011       1   34008   34002   34014       1   34002   33993   34005       1
   34002   34008   34017       1   33999   34008   34017       1   33993   34002
   34014       1   33990   33984   33996       1   33990   33999   34011       1
   33984   33975   33987       1   33981   33993   34005       1   33975   33984
   33996       1   33972   33960   33978       1   33960   33939   33963       1
   33957   33975   33987       1   33951   33933   33954       1   33942   33924
   33945       1   33942   33930   33948       1   33939   33960   33978       1
   33936   33951   33969       1   33933   33951   33969       1   33930   33942
   33966       1   33924   33915   33927       1   33924   33942   33966       1
   33921   33939   33963       1   33918   33930   33948       1   33918   33933
   33954       1   33915   33924   33945       1   33912   33915   33927       1
   34116   34107   34119       1   34116   34110   34122       1   34110   34101
   34113       1   34110   34116   34125       1   34107   34116   34125       1
   34101   34110   34122       1   34098   34092   34104       1   34098   34107
   34119       1   34092   34083   34095       1   34089   34101   34113       1
   34083   34092   34104       1   34080   34068   34086       1   34068   34047
   34071       1   34065   34083   34095       1   34059   34041   34062       1
   34050   34032   34053       1   34050   34038   34056       1   34047   34068
   34086       1   34044   34059   34077       1   34041   34059   34077       1
   34038   34050   34074       1   34032   34023   34035       1   34032   34050
   34074       1   34029   34047   34071       1   34026   34038   34056       1
   34026   34041   34062       1   34023   34032   34053       1   34020   34023
   34035       1   34224   34215   34227       1   34224   34218   34230       1
   34218   34209   34221       1   34218   34224   34233       1   34215   34224
   34233       1   34209   34218   34230       1   34206   34200   34212       1
   34206   34215   34227       1   34200   34191   34203       1   34197   34209
   34221       1   34191   34200   34212       1   34188   34176   34194       1
   34176   34155   34179       1   34173   34191   34203       1   34167   34149
   34170       1   34158   34140   34161       1   34158   34146   34164       1
   34155   34176   34194       1   34152   34167   34185       1   34149   34167
   34185       1   34146   34158   34182       1   34140   34131   34143       1
   34140   34158   34182       1   34137   34155   34179       1   34134   34146
   34164       1   34134   34149   34170       1   34131   34140   34161       1
   34128   34131   34143       1   34332   34323   34335       1   34332   34326
   34338       1   34326   34317   34329       1   34326   34332   34341       1
   34323   34332   34341       1   34317   34326   34338       1   34314   34308
   34320       1   34314   34323   34335       1   34308   34299   34311       1
   34305   34317   34329       1   34299   34308   34320       1   34296   34284
   34302       1   34284   34263   34287       1   34281   34299   34311       1
   34275   34257   34278       1   34266   34248   34269       1   34266   34254
   34272       1   34263   34284   34302       1   34260   34275   34293       1
   34257   34275   34293       1   34254   34266   34290       1   34248   34239
   34251       1   34248   34266   34290       1   34245   34263   34287       1
   34242   34254   34272       1   34242   34257   34278       1   34239   34248
   34269       1   34236   34239   34251       1   34440   34431   34443       1
   34440   34434   34446       1   34434   34425   34437       1   34434   34440
   34449       1   34431   34440   34449       1   34425   34434   34446       1
   34422   34416   34428       1   34422   34431   34443       1   34416   34407
   34419       1   34413   34425   34437       1   34407   34416   34428       1
   34404   34392   34410       1   34392   34371   34395       1   34389   34407
   34419       1   34383   34365   34386       1   34374   34356   34377       1
   34374   34362   34380       1   34371   34392   34410       1   34368   34383
   34401       1   34365   34383   34401       1   34362   34374   34398       1
   34356   34347   34359       1   34356   34374   34398       1   34353   34371
   34395       1   34350   34362   34380       1   34350   34365   34386       1
   34347   34356   34377       1   34344   34347   34359       1   34548   34539
   34551       1   34548   34542   34554       1   34542   34533   34545       1
   34542   34548   34557       1   34539   34548   34557       1   34533   34542
   34554       1   34530   34524   34536       1   34530   34539   34551       1
   34524   34515   34527       1   34521   34533   34545       1   34515   34524
   34536       1   34512   34500   34518       1   34500   34479   34503       1
   34497   34515   34527       1   34491   34473   34494       1   34482   34464
   34485       1   34482   34470   34488       1   34479   34500   34518       1
   34476   34491   34509       1   34473   34491   34509       1   34470   34482
   34506       1   34464   34455   34467       1   34464   34482   34506       1
   34461   34479   34503       1   34458   34470   34488       1   34458   34473
   34494       1   34455   34464   34485       1   34452   34455   34467       1
   34656   34647   34659       1   34656   34650   34662       1   34650   34641
   34653       1   34650   34656   34665       1   34647   34656   34665       1
   34641   34650   34662       1   34638   34632   34644       1   34638   34647
   34659       1   34632   34623   34635       1   34629   34641   34653       1
   34623   34632   34644       1   34620   34608   34626       1   34608   34587
   34611       1   34605   34623   34635       1   34599   34581   34602       1
   34590   34572   34593       1   34590   34578   34596       1   34587   34608
   34626       1   34584   34599   34617       1   34581   34599   34617       1
   34578   34590   34614       1   34572   34563   34575       1   34572   34590
   34614       1   34569   34587   34611       1   34566   34578   34596       1
   34566   34581   34602       1   34563   34572   34593       1   34560   34563
   34575       1   34764   34755   34767       1   34764   34758   34770       1
   34758   34749   34761       1   34758   34764   34773       1   34755   34764
   34773       1   34749   34758   34770       1   34746   34740   34752       1
   34746   34755   34767       1   34740   34731   34743       1   34737   34749
   34761       1   34731   34740   34752       1   34728   34716   34734       1
   34716   34695   34719       1   34713   34731   34743       1   34707   34689
   34710       1   34698   34680   34701       1   34698   34686   34704       1
   34695   34716   34734       1   34692   34707   34725       1   34689   34707
   34725       1   34686   34698   34722       1   34680   34671   34683       1
   34680   34698   34722       1   34677   34695   34719       1   34674   34686
   34704       1   34674   34689   34710       1   34671   34680   34701       1
   34668   34671   34683       1   34872   34863   34875       1   34872   34866
   34878       1   34866   34857   34869       1   34866   34872   34881       1
   34863   34872   34881       1   34857   34866   34878       1   34854   34848
   34860       1   34854   34863   34875       1   34848   34839   34851       1
   34845   34857   34869       1   34839   34848   34860       1   34836   34824
   34842       1   34824   34803   34827       1   34821   34839   34851       1
   34815   34797   34818       1   34806   34788   34809       1   34806   34794
   34812       1   34803   34824   34842       1   34800   34815   34833       1
   34797   34815   34833       1   34794   34806   34830       1   34788   34779
   34791       1   34788   34806   34830       1   34785   34803   34827       1
   34782   34794   34812       1   34782   34797   34818       1   34779   34788
   34809       1   34776   34779   34791       1   34980   34971   34983       1
   34980   34974   34986       1   34974   34965   34977       1   34974   34980
   34989       1   34971   34980   34989       1   34965   34974   34986       1
   34962   34956   34968       1   34962   34971   34983       1   34956   34947
   34959       1   34953   34965   34977       1   34947   34956   34968       1
   34944   34932   34950       1   34932   34911   34935       1   34929   34947
   34959       1   34923   34905   34926       1   34914   34896   34917       1
   34914   34902   34920       1   34911   34932   34950       1   34908   34923
   34941       1   34905   34923   34941       1   34902   34914   34938       1
   34896   34887   34899       1   34896   34914   34938       1   34893   34911
   34935       1   34890   34902   34920       1   34890   34905   34926       1
   34887   34896   34917       1   34884   34887   34899       1   35088   35079
   35091       1   35088   35082   35094       1   35082   35073   35085       1
   35082   35088   35097       1   35079   35088   35097       1   35073   35082
   35094       1   35070   35064   35076       1   35070   35079   35091       1
   35064   35055   35067       1   35061   35073   35085       1   35055   35064
   35076       1   35052   35040   35058       1   35040   35019   35043       1
   35037   35055   35067       1   35031   35013   35034       1   35022   35004
   35025       1   35022   35010   35028       1   35019   35040   35058       1
   35016   35031   35049       1   35013   35031   35049       1   35010   35022
   35046       1   35004   34995   35007       1   35004   35022   35046       1
   35001   35019   35043       1   34998   35010   35028       1   34998   35013
   35034       1   34995   35004   35025       1   34992   34995   35007       1
   35196   35187   35199       1   35196   35190   35202       1   35190   35181
   35193       1   35190   35196   35205       1   35187   35196   35205       1
   35181   35190   35202       1   35178   35172   35184       1   35178   35187
   35199       1   35172   35163   35175       1   35169   35181   35193       1
   35163   35172   35184       1   35160   35148   35166       1   35148   35127
   35151       1   35145   35163   35175       1   35139   35121   35142       1
   35130   35112   35133       1   35130   35118   35136       1   35127   35148
   35166       1   35124   35139   35157       1   35121   35139   35157       1
   35118   35130   35154       1   35112   35103   35115       1   35112   35130
   35154       1   35109   35127   35151       1   35106   35118   35136       1
   35106   35121   35142       1   35103   35112   35133       1   35100   35103
   35115       1   35304   35295   35307       1   35304   35298   35310       1
   35298   35289   35301       1   35298   35304   35313       1   35295   35304
   35313       1   35289   35298   35310       1   35286   35280   35292       1
   35286   35295   35307       1   35280   35271   35283       1   35277   35289
   35301       1   35271   35280   35292       1   35268   35256   35274       1
   35256   35235   35259       1   35253   35271   35283       1   35247   35229
   35250       1   35238   35220   35241       1   35238   35226   35244       1
   35235   35256   35274       1   35232   35247   35265       1   35229   35247
   35265       1   35226   35238   35262       1   35220   35211   35223       1
   35220   35238   35262       1   35217   35235   35259       1   35214   35226
   35244       1   35214   35229   35250       1   35211   35220   35241       1
   35208   35211   35223       1   35412   35403   35415       1   35412   35406
   35418       1   35406   35397   35409       1   35406   35412   35421       1
   35403   35412   35421       1   35397   35406   35418       1   35394   35388
   35400       1   35394   35403   35415       1   35388   35379   35391       1
   35385   35397   35409       1   35379   35388   35400       1   35376   35364
   35382       1   35364   35343   35367       1   35361   35379   35391       1
   35355   35337   35358       1   35346   35328   35349       1   35346   35334
   35352       1   35343   35364   35382       1   35340   35355   35373       1
   35337   35355   35373       1   35334   35346   35370       1   35328   35319
   35331       1   35328   35346   35370       1   35325   35343   35367       1
   35322   35334   35352       1   35322   35337   35358       1   35319   35328
   35349       1   35316   35319   35331       1   35520   35511   35523       1
   35520   35514   35526       1   35514   35505   35517       1   35514   35520
   35529       1   35511   35520   35529       1   35505   35514   35526       1
   35502   35496   35508       1   35502   35511   35523       1   35496   35487
   35499       1   35493   35505   35517       1   35487   35496   35508       1
   35484   35472   35490       1   35472   35451   35475       1   35469   35487
   35499       1   35463   35445   35466       1   35454   35436   35457       1
   35454   35442   35460       1   35451   35472   35490       1   35448   35463
   35481       1   35445   35463   35481       1   35442   35454   35478       1
   35436   35427   35439       1   35436   35454   35478       1   35433   35451
   35475       1   35430   35442   35460       1   35430   35445   35466       1
   35427   35436   35457       1   35424   35427   35439       1   35628   35619
   35631       1   35628   35622   35634       1   35622   35613   35625       1
   35622   35628   35637       1   35619   35628   35637       1   35613   35622
   35634       1   35610   35604   35616       1   35610   35619   35631       1
   35604   35595   35607       1   35601   35613   35625       1   35595   35604
   35616       1   35592   35580   35598       1   35580   35559   35583       1
   35577   35595   35607       1   35571   35553   35574       1   35562   35544
   35565       1   35562   35550   35568       1   35559   35580   35598       1
   35556   35571   35589       1   35553   35571   35589       1   35550   35562
   35586       1   35544   35535   35547       1   35544   35562   35586       1
   35541   35559   35583       1   35538   35550   35568       1   35538   35553
   35574       1   35535   35544   35565       1   35532   35535   35547       1
   35736   35727   35739       1   35736   35730   35742       1   35730   35721
   35733       1   35730   35736   35745       1   35727   35736   35745       1
   35721   35730   35742       1   35718   35712   35724       1   35718   35727
   35739       1   35712   35703   35715       1   35709   35721   35733       1
   35703   35712   35724       1   35700   35688   35706       1   35688   35667
   35691       1   35685   35703   35715       1   35679   35661   35682       1
   35670   35652   35673       1   35670   35658   35676       1   35667   35688
   35706       1   35664   35679   35697       1   35661   35679   35697       1
   35658   35670   35694       1   35652   35643   35655       1   35652   35670
   35694       1   35649   35667   35691       1   35646   35658   35676       1
   35646   35661   35682       1   35643   35652   35673       1   35640   35643
   35655       1   35844   35835   35847       1   35844   35838   35850       1
   35838   35829   35841       1   35838   35844   35853       1   35835   35844
   35853       1   35829   35838   35850       1   35826   35820   35832       1
   35826   35835   35847       1   35820   35811   35823       1   35817   35829
   35841       1   35811   35820   35832       1   35808   35796   35814       1
   35796   35775   35799       1   35793   35811   35823       1   35787   35769
   35790       1   35778   35760   35781       1   35778   35766   35784       1
   35775   35796   35814       1   35772   35787   35805       1   35769   35787
   35805       1   35766   35778   35802       1   35760   35751   35763       1
   35760   35778   35802       1   35757   35775   35799       1   35754   35766
   35784       1   35754   35769   35790       1   35751   35760   35781       1
   35748   35751   35763       1   35952   35943   35955       1   35952   35946
   35958       1   35946   35937   35949       1   35946   35952   35961       1
   35943   35952   35961       1   35937   35946   35958       1   35934   35928
   35940       1   35934   35943   35955       1   35928   35919   35931       1
   35925   35937   35949       1   35919   35928   35940       1   35916   35904
   35922       1   35904   35883   35907       1   35901   35919   35931       1
   35895   35877   35898       1   35886   35868   35889       1   35886   35874
   35892       1   35883   35904   35922       1   35880   35895   35913       1
   35877   35895   35913       1   35874   35886   35910       1   35868   35859
   35871       1   35868   35886   35910       1   35865   35883   35907       1
   35862   35874   35892       1   35862   35877   35898       1   35859   35868
   35889       1   35856   35859   35871       1   36060   36051   36063       1
   36060   36054   36066       1   36054   36045   36057       1   36054   36060
   36069       1   36051   36060   36069       1   36045   36054   36066       1
   36042   36036   36048       1   36042   36051   36063       1   36036   36027
   36039       1   36033   36045   36057       1   36027   36036   36048       1
   36024   36012   36030       1   36012   35991   36015       1   36009   36027
   36039       1   36003   35985   36006       1   35994   35976   35997       1
   35994   35982   36000       1   35991   36012   36030       1   35988   36003
   36021       1   35985   36003   36021       1   35982   35994   36018       1
   35976   35967   35979       1   35976   35994   36018       1   35973   35991
   36015       1   35970   35982   36000       1   35970   35985   36006       1
   35967   35976   35997       1   35964   35967   35979       1   36168   36159
   36171       1   36168   36162   36174       1   36162   36153   36165       1
   36162   36168   36177       1   36159   36168   36177       1   36153   36162
   36174       1   36150   36144   36156       1   36150   36159   36171       1
   36144   36135   36147       1   36141   36153   36165       1   36135   36144
   36156       1   36132   36120   36138       1   36120   36099   36123       1
   36117   36135   36147       1   36111   36093   36114       1   36102   36084
   36105       1   36102   36090   36108       1   36099   36120   36138       1
   36096   36111   36129       1   36093   36111   36129       1   36090   36102
   36126       1   36084   36075   36087       1   36084   36102   36126       1
   36081   36099   36123       1   36078   36090   36108       1   36078   36093
   36114       1   36075   36084   36105       1   36072   36075   36087       1
   36276   36267   36279       1   36276   36270   36282       1   36270   36261
   36273       1   36270   36276   36285       1   36267   36276   36285       1
   36261   36270   36282       1   36258   36252   36264       1   36258   36267
   36279       1   36252   36243   36255       1   36249   36261   36273       1
   36243   36252   36264       1   36240   36228   36246       1   36228   36207
   36231       1   36225   36243   36255       1   36219   36201   36222       1
   36210   36192   36213       1   36210   36198   36216       1   36207   36228
   36246       1   36204   36219   36237       1   36201   36219   36237       1
   36198   36210   36234       1   36192   36183   36195       1   36192   36210
   36234       1   36189   36207   36231       1   36186   36198   36216       1
   36186   36201   36222       1   36183   36192   36213       1   36180   36183
   36195       1   36384   36375   36387       1   36384   36378   36390       1
   36378   36369   36381       1   36378   36384   36393       1   36375   36384
   36393       1   36369   36378   36390       1   36366   36360   36372       1
   36366   36375   36387       1   36360   36351   36363       1   36357   36369
   36381       1   36351   36360   36372       1   36348   36336   36354       1
   36336   36315   36339       1   36333   36351   36363       1   36327   36309
   36330       1   36318   36300   36321       1   36318   36306   36324       1
   36315   36336   36354       1   36312   36327   36345       1   36309   36327
   36345       1   36306   36318   36342       1   36300   36291   36303       1
   36300   36318   36342       1   36297   36315   36339       1   36294   36306
   36324       1   36294   36309   36330       1   36291   36300   36321       1
   36288   36291   36303       1   36492   36483   36495       1   36492   36486
   36498       1   36486   36477   36489       1   36486   36492   36501       1
   36483   36492   36501       1   36477   36486   36498       1   36474   36468
   36480       1   36474   36483   36495       1   36468   36459   36471       1
   36465   36477   36489       1   36459   36468   36480       1   36456   36444
   36462       1   36444   36423   36447       1   36441   36459   36471       1
   36435   36417   36438       1   36426   36408   36429       1   36426   36414
   36432       1   36423   36444   36462       1   36420   36435   36453       1
   36417   36435   36453       1   36414   36426   36450       1   36408   36399
   36411       1   36408   36426   36450       1   36405   36423   36447       1
   36402   36414   36432       1   36402   36417   36438       1   36399   36408
   36429       1   36396   36399   36411       1   36600   36591   36603       1
   36600   36594   36606       1   36594   36585   36597       1   36594   36600
   36609       1   36591   36600   36609       1   36585   36594   36606       1
   36582   36576   36588       1   36582   36591   36603       1   36576   36567
   36579       1   36573   36585   36597       1   36567   36576   36588       1
   36564   36552   36570       1   36552   36531   36555       1   36549   36567
   36579       1   36543   36525   36546       1   36534   36516   36537       1
   36534   36522   36540       1   36531   36552   36570       1   36528   36543
   36561       1   36525   36543   36561       1   36522   36534   36558       1
   36516   36507   36519       1   36516   36534   36558       1   36513   36531
   36555       1   36510   36522   36540       1   36510   36525   36546       1
   36507   36516   36537       1   36504   36507   36519       1   36708   36699
   36711       1   36708   36702   36714       1   36702   36693   36705       1
   36702   36708   36717       1   36699   36708   36717       1   36693   36702
   36714       1   36690   36684   36696       1   36690   36699   36711       1
   36684   36675   36687       1   36681   36693   36705       1   36675   36684
   36696       1   36672   36660   36678       1   36660   36639   36663       1
   36657   36675   36687       1   36651   36633   36654       1   36642   36624
   36645       1   36642   36630   36648       1   36639   36660   36678       1
   36636   36651   36669       1   36633   36651   36669       1   36630   36642
   36666       1   36624   36615   36627       1   36624   36642   36666       1
   36621   36639   36663       1   36618   36630   36648       1   36618   36633
   36654       1   36615   36624   36645       1   36612   36615   36627       1
   36816   36807   36819       1   36816   36810   36822       1   36810   36801
   36813       1   36810   36816   36825       1   36807   36816   36825       1
   36801   36810   36822       1   36798   36792   36804       1   36798   36807
   36819       1   36792   36783   36795       1   36789   36801   36813       1
   36783   36792   36804       1   36780   36768   36786       1   36768   36747
   36771       1   36765   36783   36795       1   36759   36741   36762       1
   36750   36732   36753       1   36750   36738   36756       1   36747   36768
   36786       1   36744   36759   36777       1   36741   36759   36777       1
   36738   36750   36774       1   36732   36723   36735       1   36732   36750
   36774       1   36729   36747   36771       1   36726   36738   36756       1
   36726   36741   36762       1   36723   36732   36753       1   36720   36723
   36735       1   36924   36915   36927       1   36924   36918   36930       1
   36918   36909   36921       1   36918   36924   36933       1   36915   36924
   36933       1   36909   36918   36930       1   36906   36900   36912       1
   36906   36915   36927       1   36900   36891   36903       1   36897   36909
   36921       1   36891   36900   36912       1   36888   36876   36894       1
   36876   36855   36879       1   36873   36891   36903       1   36867   36849
   36870       1   36858   36840   36861       1   36858   36846   36864       1
   36855   36876   36894       1   36852   36867   36885       1   36849   36867
   36885       1   36846   36858   36882       1   36840   36831   36843       1
   36840   36858   36882       1   36837   36855   36879       1   36834   36846
   36864       1   36834   36849   36870       1   36831   36840   36861       1
   36828   36831   36843       1   37032   37023   37035       1   37032   37026
   37038       1   37026   37017   37029       1   37026   37032   37041       1
   37023   37032   37041       1   37017   37026   37038       1   37014   37008
   37020       1   37014   37023   37035       1   37008   36999   37011       1
   37005   37017   37029       1   36999   37008   37020       1   36996   36984
   37002       1   36984   36963   36987       1   36981   36999   37011       1
   36975   36957   36978       1   36966   36948   36969       1   36966   36954
   36972       1   36963   36984   37002       1   36960   36975   36993       1
   36957   36975   36993       1   36954   36966   36990       1   36948   36939
   36951       1   36948   36966   36990       1   36945   36963   36987       1
   36942   36954   36972       1   36942   36957   36978       1   36939   36948
   36969       1   36936   36939   36951       1   37140   37131   37143       1
   37140   37134   37146       1   37134   37125   37137       1   37134   37140
   37149       1   37131   37140   37149       1   37125   37134   37146       1
   37122   37116   37128       1   37122   37131   37143       1   37116   37107
   37119       1   37113   37125   37137       1   37107   37116   37128       1
   37104   37092   37110       1   37092   37071   37095       1   37089   37107
   37119       1   37083   37065   37086       1   37074   37056   37077       1
   37074   37062   37080       1   37071   37092   37110       1   37068   37083
   37101       1   37065   37083   37101       1   37062   37074   37098       1
   37056   37047   37059       1   37056   37074   37098       1   37053   37071
   37095       1   37050   37062   37080       1   37050   37065   37086       1
   37047   37056   37077       1   37044   37047   37059       1   37248   37239
   37251       1   37248   37242   37254       1   37242   37233   37245       1
   37242   37248   37257       1   37239   37248   37257       1   37233   37242
   37254       1   37230   37224   37236       1   37230   37239   37251       1
   37224   37215   37227       1   37221   37233   37245       1   37215   37224
   37236       1   37212   37200   37218       1   37200   37179   37203       1
   37197   37215   37227       1   37191   37173   37194       1   37182   37164
   37185       1   37182   37170   37188       1   37179   37200   37218       1
   37176   37191   37209       1   37173   37191   37209       1   37170   37182
   37206       1   37164   37155   37167       1   37164   37182   37206       1
   37161   37179   37203       1   37158   37170   37188       1   37158   37173
   37194       1   37155   37164   37185       1   37152   37155   37167       1
   37356   37347   37359       1   37356   37350   37362       1   37350   37341
   37353       1   37350   37356   37365       1   37347   37356   37365       1
   37341   37350   37362       1   37338   37332   37344       1   37338   37347
   37359       1   37332   37323   37335       1   37329   37341   37353       1
   37323   37332   37344       1   37320   37308   37326       1   37308   37287
   37311       1   37305   37323   37335       1   37299   37281   37302       1
   37290   37272   37293       1   37290   37278   37296       1   37287   37308
   37326       1   37284   37299   37317       1   37281   37299   37317       1
   37278   37290   37314       1   37272   37263   37275       1   37272   37290
   37314       1   37269   37287   37311       1   37266   37278   37296       1
   37266   37281   37302       1   37263   37272   37293       1   37260   37263
   37275       1   37464   37455   37467       1   37464   37458   37470       1
   37458   37449   37461       1   37458   37464   37473       1   37455   37464
   37473       1   37449   37458   37470       1   37446   37440   37452       1
   37446   37455   37467       1   37440   37431   37443       1   37437   37449
   37461       1   37431   37440   37452       1   37428   37416   37434       1
   37416   37395   37419       1   37413   37431   37443       1   37407   37389
   37410       1   37398   37380   37401       1   37398   37386   37404       1
   37395   37416   37434       1   37392   37407   37425       1   37389   37407
   37425       1   37386   37398   37422       1   37380   37371   37383       1
   37380   37398   37422       1   37377   37395   37419       1   37374   37386
   37404       1   37374   37389   37410       1   37371   37380   37401       1
   37368   37371   37383       1   37572   37563   37575       1   37572   37566
   37578       1   37566   37557   37569       1   37566   37572   37581       1
   37563   37572   37581       1   37557   37566   37578       1   37554   37548
   37560       1   37554   37563   37575       1   37548   37539   37551       1
   37545   37557   37569       1   37539   37548   37560       1   37536   37524
   37542       1   37524   37503   37527       1   37521   37539   37551       1
   37515   37497   37518       1   37506   37488   37509       1   37506   37494
   37512       1   37503   37524   37542       1   37500   37515   37533       1
   37497   37515   37533       1   37494   37506   37530       1   37488   37479
   37491       1   37488   37506   37530       1   37485   37503   37527       1
   37482   37494   37512       1   37482   37497   37518       1   37479   37488
   37509       1   37476   37479   37491       1   37680   37671   37683       1
   37680   37674   37686       1   37674   37665   37677       1   37674   37680
   37689       1   37671   37680   37689       1   37665   37674   37686       1
   37662   37656   37668       1   37662   37671   37683       1   37656   37647
   37659       1   37653   37665   37677       1   37647   37656   37668       1
   37644   37632   37650       1   37632   37611   37635       1   37629   37647
   37659       1   37623   37605   37626       1   37614   37596   37617       1
   37614   37602   37620       1   37611   37632   37650       1   37608   37623
   37641       1   37605   37623   37641       1   37602   37614   37638       1
   37596   37587   37599       1   37596   37614   37638       1   37593   37611
   37635       1   37590   37602   37620       1   37590   37605   37626       1
   37587   37596   37617       1   37584   37587   37599       1   37788   37779
   37791       1   37788   37782   37794       1   37782   37773   37785       1
   37782   37788   37797       1   37779   37788   37797       1   37773   37782
   37794       1   37770   37764   37776       1   37770   37779   37791       1
   37764   37755   37767       1   37761   37773   37785       1   37755   37764
   37776       1   37752   37740   37758       1   37740   37719   37743       1
   37737   37755   37767       1   37731   37713   37734       1   37722   37704
   37725       1   37722   37710   37728       1   37719   37740   37758       1
   37716   37731   37749       1   37713   37731   37749       1   37710   37722
   37746       1   37704   37695   37707       1   37704   37722   37746       1
   37701   37719   37743       1   37698   37710   37728       1   37698   37713
   37734       1   37695   37704   37725       1   37692   37695   37707       1
   37896   37887   37899       1   37896   37890   37902       1   37890   37881
   37893       1   37890   37896   37905       1   37887   37896   37905       1
   37881   37890   37902       1   37878   37872   37884       1   37878   37887
   37899       1   37872   37863   37875       1   37869   37881   37893       1
   37863   37872   37884       1   37860   37848   37866       1   37848   37827
   37851       1   37845   37863   37875       1   37839   37821   37842       1
   37830   37812   37833       1   37830   37818   37836       1   37827   37848
   37866       1   37824   37839   37857       1   37821   37839   37857       1
   37818   37830   37854       1   37812   37803   37815       1   37812   37830
   37854       1   37809   37827   37851       1   37806   37818   37836       1
   37806   37821   37842       1   37803   37812   37833       1   37800   37803
   37815       1   38004   37995   38007       1   38004   37998   38010       1
   37998   37989   38001       1   37998   38004   38013       1   37995   38004
   38013       1   37989   37998   38010       1   37986   37980   37992       1
   37986   37995   38007       1   37980   37971   37983       1   37977   37989
   38001       1   37971   37980   37992       1   37968   37956   37974       1
   37956   37935   37959       1   37953   37971   37983       1   37947   37929
   37950       1   37938   37920   37941       1   37938   37926   37944       1
   37935   37956   37974       1   37932   37947   37965       1   37929   37947
   37965       1   37926   37938   37962       1   37920   37911   37923       1
   37920   37938   37962       1   37917   37935   37959       1   37914   37926
   37944       1   37914   37929   37950       1   37911   37920   37941       1
   37908   37911   37923       1   38112   38103   38115       1   38112   38106
   38118       1   38106   38097   38109       1   38106   38112   38121       1
   38103   38112   38121       1   38097   38106   38118       1   38094   38088
   38100       1   38094   38103   38115       1   38088   38079   38091       1
   38085   38097   38109       1   38079   38088   38100       1   38076   38064
   38082       1   38064   38043   38067       1   38061   38079   38091       1
   38055   38037   38058       1   38046   38028   38049       1   38046   38034
   38052       1   38043   38064   38082       1   38040   38055   38073       1
   38037   38055   38073       1   38034   38046   38070       1   38028   38019
   38031       1   38028   38046   38070       1   38025   38043   38067       1
   38022   38034   38052       1   38022   38037   38058       1   38019   38028
   38049       1   38016   38019   38031       1   38220   38211   38223       1
   38220   38214   38226       1   38214   38205   38217       1   38214   38220
   38229       1   38211   38220   38229       1   38205   38214   38226       1
   38202   38196   38208       1   38202   38211   38223       1   38196   38187
   38199       1   38193   38205   38217       1   38187   38196   38208       1
   38184   38172   38190       1   38172   38151   38175       1   38169   38187
   38199       1   38163   38145   38166       1   38154   38136   38157       1
   38154   38142   38160       1   38151   38172   38190       1   38148   38163
   38181       1   38145   38163   38181       1   38142   38154   38178       1
   38136   38127   38139       1   38136   38154   38178       1   38133   38151
   38175       1   38130   38142   38160       1   38130   38145   38166       1
   38127   38136   38157       1   38124   38127   38139       1   38328   38319
   38331       1   38328   38322   38334       1   38322   38313   38325       1
   38322   38328   38337       1   38319   38328   38337       1   38313   38322
   38334       1   38310   38304   38316       1   38310   38319   38331       1
   38304   38295   38307       1   38301   38313   38325       1   38295   38304
   38316       1   38292   38280   38298       1   38280   38259   38283       1
   38277   38295   38307       1   38271   38253   38274       1   38262   38244
   38265       1   38262   38250   38268       1   38259   38280   38298       1
   38256   38271   38289       1   38253   38271   38289       1   38250   38262
   38286       1   38244   38235   38247       1   38244   38262   38286       1
   38241   38259   38283       1   38238   38250   38268       1   38238   38253
   38274       1   38235   38244   38265       1   38232   38235   38247       1
   38436   38427   38439       1   38436   38430   38442       1   38430   38421
   38433       1   38430   38436   38445       1   38427   38436   38445       1
   38421   38430   38442       1   38418   38412   38424       1   38418   38427
   38439       1   38412   38403   38415       1   38409   38421   38433       1
   38403   38412   38424       1   38400   38388   38406       1   38388   38367
   38391       1   38385   38403   38415       1   38379   38361   38382       1
   38370   38352   38373       1   38370   38358   38376       1   38367   38388
   38406       1   38364   38379   38397       1   38361   38379   38397       1
   38358   38370   38394       1   38352   38343   38355       1   38352   38370
   38394       1   38349   38367   38391       1   38346   38358   38376       1
   38346   38361   38382       1   38343   38352   38373       1   38340   38343
   38355       1   38544   38535   38547       1   38544   38538   38550       1
   38538   38529   38541       1   38538   38544   38553       1   38535   38544
   38553       1   38529   38538   38550       1   38526   38520   38532       1
   38526   38535   38547       1   38520   38511   38523       1   38517   38529
   38541       1   38511   38520   38532       1   38508   38496   38514       1
   38496   38475   38499       1   38493   38511   38523       1   38487   38469
   38490       1   38478   38460   38481       1   38478   38466   38484       1
   38475   38496   38514       1   38472   38487   38505       1   38469   38487
   38505       1   38466   38478   38502       1   38460   38451   38463       1
   38460   38478   38502       1   38457   38475   38499       1   38454   38466
   38484       1   38454   38469   38490       1   38451   38460   38481       1
   38448   38451   38463       1   38652   38643   38655       1   38652   38646
   38658       1   38646   38637   38649       1   38646   38652   38661       1
   38643   38652   38661       1   38637   38646   38658       1   38634   38628
   38640       1   38634   38643   38655       1   38628   38619   38631       1
   38625   38637   38649       1   38619   38628   38640       1   38616   38604
   38622       1   38604   38583   38607       1   38601   38619   38631       1
   38595   38577   38598       1   38586   38568   38589       1   38586   38574
   38592       1   38583   38604   38622       1   38580   38595   38613       1
   38577   38595   38613       1   38574   38586   38610       1   38568   38559
   38571       1   38568   38586   38610       1   38565   38583   38607       1
   38562   38574   38592       1   38562   38577   38598       1   38559   38568
   38589       1   38556   38559   38571       1   38760   38751   38763       1
   38760   38754   38766       1   38754   38745   38757       1   38754   38760
   38769       1   38751   38760   38769       1   38745   38754   38766       1
   38742   38736   38748       1   38742   38751   38763       1   38736   38727
   38739       1   38733   38745   38757       1   38727   38736   38748       1
   38724   38712   38730       1   38712   38691   38715       1   38709   38727
   38739       1   38703   38685   38706       1   38694   38676   38697       1
   38694   38682   38700       1   38691   38712   38730       1   38688   38703
   38721       1   38685   38703   38721       1   38682   38694   38718       1
   38676   38667   38679       1   38676   38694   38718       1   38673   38691
   38715       1   38670   38682   38700       1   38670   38685   38706       1
   38667   38676   38697       1   38664   38667   38679       1   38868   38859
   38871       1   38868   38862   38874       1   38862   38853   38865       1
   38862   38868   38877       1   38859   38868   38877       1   38853   38862
   38874       1   38850   38844   38856       1   38850   38859   38871       1
   38844   38835   38847       1   38841   38853   38865       1   38835   38844
   38856       1   38832   38820   38838       1   38820   38799   38823       1
   38817   38835   38847       1   38811   38793   38814       1   38802   38784
   38805       1   38802   38790   38808       1   38799   38820   38838       1
   38796   38811   38829       1   38793   38811   38829       1   38790   38802
   38826       1   38784   38775   38787       1   38784   38802   38826       1
   38781   38799   38823       1   38778   38790   38808       1   38778   38793
   38814       1   38775   38784   38805       1   38772   38775   38787       1
   38976   38967   38979       1   38976   38970   38982       1   38970   38961
   38973       1   38970   38976   38985       1   38967   38976   38985       1
   38961   38970   38982       1   38958   38952   38964       1   38958   38967
   38979       1   38952   38943   38955       1   38949   38961   38973       1
   38943   38952   38964       1   38940   38928   38946       1   38928   38907
   38931       1   38925   38943   38955       1   38919   38901   38922       1
   38910   38892   38913       1   38910   38898   38916       1   38907   38928
   38946       1   38904   38919   38937       1   38901   38919   38937       1
   38898   38910   38934       1   38892   38883   38895       1   38892   38910
   38934       1   38889   38907   38931       1   38886   38898   38916       1
   38886   38901   38922       1   38883   38892   38913       1   38880   38883
   38895       1   39084   39075   39087       1   39084   39078   39090       1
   39078   39069   39081       1   39078   39084   39093       1   39075   39084
   39093       1   39069   39078   39090       1   39066   39060   39072       1
   39066   39075   39087       1   39060   39051   39063       1   39057   39069
   39081       1   39051   39060   39072       1   39048   39036   39054       1
   39036   39015   39039       1   39033   39051   39063       1   39027   39009
   39030       1   39018   39000   39021       1   39018   39006   39024       1
   39015   39036   39054       1   39012   39027   39045       1   39009   39027
   39045       1   39006   39018   39042       1   39000   38991   39003       1
   39000   39018   39042       1   38997   39015   39039       1   38994   39006
   39024       1   38994   39009   39030       1   38991   39000   39021       1
   38988   38991   39003       1   39192   39183   39195       1   39192   39186
   39198       1   39186   39177   39189       1   39186   39192   39201       1
   39183   39192   39201       1   39177   39186   39198       1   39174   39168
   39180       1   39174   39183   39195       1   39168   39159   39171       1
   39165   39177   39189       1   39159   39168   39180       1   39156   39144
   39162       1   39144   39123   39147       1   39141   39159   39171       1
   39135   39117   39138       1   39126   39108   39129       1   39126   39114
   39132       1   39123   39144   39162       1   39120   39135   39153       1
   39117   39135   39153       1   39114   39126   39150       1   39108   39099
   39111       1   39108   39126   39150       1   39105   39123   39147       1
   39102   39114   39132       1   39102   39117   39138       1   39099   39108
   39129       1   39096   39099   39111       1   39300   39291   39303       1
   39300   39294   39306       1   39294   39285   39297       1   39294   39300
   39309       1   39291   39300   39309       1   39285   39294   39306       1
   39282   39276   39288       1   39282   39291   39303       1   39276   39267
   39279       1   39273   39285   39297       1   39267   39276   39288       1
   39264   39252   39270       1   39252   39231   39255       1   39249   39267
   39279       1   39243   39225   39246       1   39234   39216   39237       1
   39234   39222   39240       1   39231   39252   39270       1   39228   39243
   39261       1   39225   39243   39261       1   39222   39234   39258       1
   39216   39207   39219       1   39216   39234   39258       1   39213   39231
   39255       1   39210   39222   39240       1   39210   39225   39246       1
   39207   39216   39237       1   39204   39207   39219       1   39408   39399
   39411       1   39408   39402   39414       1   39402   39393   39405       1
   39402   39408   39417       1   39399   39408   39417       1   39393   39402
   39414       1   39390   39384   39396       1   39390   39399   39411       1
   39384   39375   39387       1   39381   39393   39405       1   39375   39384
   39396       1   39372   39360   39378       1   39360   39339   39363       1
   39357   39375   39387       1   39351   39333   39354       1   39342   39324
   39345       1   39342   39330   39348       1   39339   39360   39378       1
   39336   39351   39369       1   39333   39351   39369       1   39330   39342
   39366       1   39324   39315   39327       1   39324   39342   39366       1
   39321   39339   39363       1   39318   39330   39348       1   39318   39333
   39354       1   39315   39324   39345       1   39312   39315   39327       1
   39516   39507   39519       1   39516   39510   39522       1   39510   39501
   39513       1   39510   39516   39525       1   39507   39516   39525       1
   39501   39510   39522       1   39498   39492   39504       1   39498   39507
   39519       1   39492   39483   39495       1   39489   39501   39513       1
   39483   39492   39504       1   39480   39468   39486       1   39468   39447
   39471       1   39465   39483   39495       1   39459   39441   39462       1
   39450   39432   39453       1   39450   39438   39456       1   39447   39468
   39486       1   39444   39459   39477       1   39441   39459   39477       1
   39438   39450   39474       1   39432   39423   39435       1   39432   39450
   39474       1   39429   39447   39471       1   39426   39438   39456       1
   39426   39441   39462       1   39423   39432   39453       1   39420   39423
   39435       1   39624   39615   39627       1   39624   39618   39630       1
   39618   39609   39621       1   39618   39624   39633       1   39615   39624
   39633       1   39609   39618   39630       1   39606   39600   39612       1
   39606   39615   39627       1   39600   39591   39603       1   39597   39609
   39621       1   39591   39600   39612       1   39588   39576   39594       1
   39576   39555   39579       1   39573   39591   39603       1   39567   39549
   39570       1   39558   39540   39561       1   39558   39546   39564       1
   39555   39576   39594       1   39552   39567   39585       1   39549   39567
   39585       1   39546   39558   39582       1   39540   39531   39543       1
   39540   39558   39582       1   39537   39555   39579       1   39534   39546
   39564       1   39534   39549   39570       1   39531   39540   39561       1
   39528   39531   39543       1   39732   39723   39735       1   39732   39726
   39738       1   39726   39717   39729       1   39726   39732   39741       1
   39723   39732   39741       1   39717   39726   39738       1   39714   39708
   39720       1   39714   39723   39735       1   39708   39699   39711       1
   39705   39717   39729       1   39699   39708   39720       1   39696   39684
   39702       1   39684   39663   39687       1   39681   39699   39711       1
   39675   39657   39678       1   39666   39648   39669       1   39666   39654
   39672       1   39663   39684   39702       1   39660   39675   39693       1
   39657   39675   39693       1   39654   39666   39690       1   39648   39639
   39651       1   39648   39666   39690       1   39645   39663   39687       1
   39642   39654   39672       1   39642   39657   39678       1   39639   39648
   39669       1   39636   39639   39651       1   39840   39831   39843       1
   39840   39834   39846       1   39834   39825   39837       1   39834   39840
   39849       1   39831   39840   39849       1   39825   39834   39846       1
   39822   39816   39828       1   39822   39831   39843       1   39816   39807
   39819       1   39813   39825   39837       1   39807   39816   39828       1
   39804   39792   39810       1   39792   39771   39795       1   39789   39807
   39819       1   39783   39765   39786       1   39774   39756   39777       1
   39774   39762   39780       1   39771   39792   39810       1   39768   39783
   39801       1   39765   39783   39801       1   39762   39774   39798       1
   39756   39747   39759       1   39756   39774   39798       1   39753   39771
   39795       1   39750   39762   39780       1   39750   39765   39786       1
   39747   39756   39777       1   39744   39747   39759       1   39948   39939
   39951       1   39948   39942   39954       1   39942   39933   39945       1
   39942   39948   39957       1   39939   39948   39957       1   39933   39942
   39954       1   39930   39924   39936       1   39930   39939   39951       1
   39924   39915   39927       1   39921   39933   39945       1   39915   39924
   39936       1   39912   39900   39918       1   39900   39879   39903       1
   39897   39915   39927       1   39891   39873   39894       1   39882   39864
   39885       1   39882   39870   39888       1   39879   39900   39918       1
   39876   39891   39909       1   39873   39891   39909       1   39870   39882
   39906       1   39864   39855   39867       1   39864   39882   39906       1
   39861   39879   39903       1   39858   39870   39888       1   39858   39873
   39894       1   39855   39864   39885       1   39852   39855   39867       1
   40056   40047   40059       1   40056   40050   40062       1   40050   40041
   40053       1   40050   40056   40065       1   40047   40056   40065       1
   40041   40050   40062       1   40038   40032   40044       1   40038   40047
   40059       1   40032   40023   40035       1   40029   40041   40053       1
   40023   40032   40044       1   40020   40008   40026       1   40008   39987
   40011       1   40005   40023   40035       1   39999   39981   40002       1
   39990   39972   39993       1   39990   39978   39996       1   39987   40008
   40026       1   39984   39999   40017       1   39981   39999   40017       1
   39978   39990   40014       1   39972   39963   39975       1   39972   39990
   40014       1   39969   39987   40011       1   39966   39978   39996       1
   39966   39981   40002       1   39963   39972   39993       1   39960   39963
   39975       1   40164   40155   40167       1   40164   40158   40170       1
   40158   40149   40161       1   40158   40164   40173       1   40155   40164
   40173       1   40149   40158   40170       1   40146   40140   40152       1
   40146   40155   40167       1   40140   40131   40143       1   40137   40149
   40161       1   40131   40140   40152       1   40128   40116   40134       1
   40116   40095   40119       1   40113   40131   40143       1   40107   40089
   40110       1   40098   40080   40101       1   40098   40086   40104       1
   40095   40116   40134       1   40092   40107   40125       1   40089   40107
   40125       1   40086   40098   40122       1   40080   40071   40083       1
   40080   40098   40122       1   40077   40095   40119       1   40074   40086
   40104       1   40074   40089   40110       1   40071   40080   40101       1
   40068   40071   40083       1   40272   40263   40275       1   40272   40266
   40278       1   40266   40257   40269       1   40266   40272   40281       1
   40263   40272   40281       1   40257   40266   40278       1   40254   40248
   40260       1   40254   40263   40275       1   40248   40239   40251       1
   40245   40257   40269       1   40239   40248   40260       1   40236   40224
   40242       1   40224   40203   40227       1   40221   40239   40251       1
   40215   40197   40218       1   40206   40188   40209       1   40206   40194
   40212       1   40203   40224   40242       1   40200   40215   40233       1
   40197   40215   40233       1   40194   40206   40230       1   40188   40179
   40191       1   40188   40206   40230       1   40185   40203   40227       1
   40182   40194   40212       1   40182   40197   40218       1   40179   40188
   40209       1   40176   40179   40191       1   40380   40371   40383       1
   40380   40374   40386       1   40374   40365   40377       1   40374   40380
   40389       1   40371   40380   40389       1   40365   40374   40386       1
   40362   40356   40368       1   40362   40371   40383       1   40356   40347
   40359       1   40353   40365   40377       1   40347   40356   40368       1
   40344   40332   40350       1   40332   40311   40335       1   40329   40347
   40359       1   40323   40305   40326       1   40314   40296   40317       1
   40314   40302   40320       1   40311   40332   40350       1   40308   40323
   40341       1   40305   40323   40341       1   40302   40314   40338       1
   40296   40287   40299       1   40296   40314   40338       1   40293   40311
   40335       1   40290   40302   40320       1   40290   40305   40326       1
   40287   40296   40317       1   40284   40287   40299       1   40488   40479
   40491       1   40488   40482   40494       1   40482   40473   40485       1
   40482   40488   40497       1   40479   40488   40497       1   40473   40482
   40494       1   40470   40464   40476       1   40470   40479   40491       1
   40464   40455   40467       1   40461   40473   40485       1   40455   40464
   40476       1   40452   40440   40458       1   40440   40419   40443       1
   40437   40455   40467       1   40431   40413   40434       1   40422   40404
   40425       1   40422   40410   40428       1   40419   40440   40458       1
   40416   40431   40449       1   40413   40431   40449       1   40410   40422
   40446       1   40404   40395   40407       1   40404   40422   40446       1
   40401   40419   40443       1   40398   40410   40428       1   40398   40413
   40434       1   40395   40404   40425       1   40392   40395   40407       1
   40596   40587   40599       1   40596   40590   40602       1   40590   40581
   40593       1   40590   40596   40605       1   40587   40596   40605       1
   40581   40590   40602       1   40578   40572   40584       1   40578   40587
   40599       1   40572   40563   40575       1   40569   40581   40593       1
   40563   40572   40584       1   40560   40548   40566       1   40548   40527
   40551       1   40545   40563   40575       1   40539   40521   40542       1
   40530   40512   40533       1   40530   40518   40536       1   40527   40548
   40566       1   40524   40539   40557       1   40521   40539   40557       1
   40518   40530   40554       1   40512   40503   40515       1   40512   40530
   40554       1   40509   40527   40551       1   40506   40518   40536       1
   40506   40521   40542       1   40503   40512   40533       1   40500   40503
   40515       1   40704   40695   40707       1   40704   40698   40710       1
   40698   40689   40701       1   40698   40704   40713       1   40695   40704
   40713       1   40689   40698   40710       1   40686   40680   40692       1
   40686   40695   40707       1   40680   40671   40683       1   40677   40689
   40701       1   40671   40680   40692       1   40668   40656   40674       1
   40656   40635   40659       1   40653   40671   40683       1   40647   40629
   40650       1   40638   40620   40641       1   40638   40626   40644       1
   40635   40656   40674       1   40632   40647   40665       1   40629   40647
   40665       1   40626   40638   40662       1   40620   40611   40623       1
   40620   40638   40662       1   40617   40635   40659       1   40614   40626
   40644       1   40614   40629   40650       1   40611   40620   40641       1
   40608   40611   40623       1   40812   40803   40815       1   40812   40806
   40818       1   40806   40797   40809       1   40806   40812   40821       1
   40803   40812   40821       1   40797   40806   40818       1   40794   40788
   40800       1   40794   40803   40815       1   40788   40779   40791       1
   40785   40797   40809       1   40779   40788   40800       1   40776   40764
   40782       1   40764   40743   40767       1   40761   40779   40791       1
   40755   40737   40758       1   40746   40728   40749       1   40746   40734
   40752       1   40743   40764   40782       1   40740   40755   40773       1
   40737   40755   40773       1   40734   40746   40770       1   40728   40719
   40731       1   40728   40746   40770       1   40725   40743   40767       1
   40722   40734   40752       1   40722   40737   40758       1   40719   40728
   40749       1   40716   40719   40731       1   40920   40911   40923       1
   40920   40914   40926       1   40914   40905   40917       1   40914   40920
   40929       1   40911   40920   40929       1   40905   40914   40926       1
   40902   40896   40908       1   40902   40911   40923       1   40896   40887
   40899       1   40893   40905   40917       1   40887   40896   40908       1
   40884   40872   40890       1   40872   40851   40875       1   40869   40887
   40899       1   40863   40845   40866       1   40854   40836   40857       1
   40854   40842   40860       1   40851   40872   40890       1   40848   40863
   40881       1   40845   40863   40881       1   40842   40854   40878       1
   40836   40827   40839       1   40836   40854   40878       1   40833   40851
   40875       1   40830   40842   40860       1   40830   40845   40866       1
   40827   40836   40857       1   40824   40827   40839       1   41028   41019
   41031       1   41028   41022   41034       1   41022   41013   41025       1
   41022   41028   41037       1   41019   41028   41037       1   41013   41022
   41034       1   41010   41004   41016       1   41010   41019   41031       1
   41004   40995   41007       1   41001   41013   41025       1   40995   41004
   41016       1   40992   40980   40998       1   40980   40959   40983       1
   40977   40995   41007       1   40971   40953   40974       1   40962   40944
   40965       1   40962   40950   40968       1   40959   40980   40998       1
   40956   40971   40989       1   40953   40971   40989       1   40950   40962
   40986       1   40944   40935   40947       1   40944   40962   40986       1
   40941   40959   40983       1   40938   40950   40968       1   40938   40953
   40974       1   40935   40944   40965       1   40932   40935   40947       1
   41136   41127   41139       1   41136   41130   41142       1   41130   41121
   41133       1   41130   41136   41145       1   41127   41136   41145       1
   41121   41130   41142       1   41118   41112   41124       1   41118   41127
   41139       1   41112   41103   41115       1   41109   41121   41133       1
   41103   41112   41124       1   41100   41088   41106       1   41088   41067
   41091       1   41085   41103   41115       1   41079   41061   41082       1
   41070   41052   41073       1   41070   41058   41076       1   41067   41088
   41106       1   41064   41079   41097       1   41061   41079   41097       1
   41058   41070   41094       1   41052   41043   41055       1   41052   41070
   41094       1   41049   41067   41091       1   41046   41058   41076       1
   41046   41061   41082       1   41043   41052   41073       1   41040   41043
   41055       1   41244   41235   41247       1   41244   41238   41250       1
   41238   41229   41241       1   41238   41244   41253       1   41235   41244
   41253       1   41229   41238   41250       1   41226   41220   41232       1
   41226   41235   41247       1   41220   41211   41223       1   41217   41229
   41241       1   41211   41220   41232       1   41208   41196   41214       1
   41196   41175   41199       1   41193   41211   41223       1   41187   41169
   41190       1   41178   41160   41181       1   41178   41166   41184       1
   41175   41196   41214       1   41172   41187   41205       1   41169   41187
   41205       1   41166   41178   41202       1   41160   41151   41163       1
   41160   41178   41202       1   41157   41175   41199       1   41154   41166
   41184       1   41154   41169   41190       1   41151   41160   41181       1
   41148   41151   41163       1   41352   41343   41355       1   41352   41346
   41358       1   41346   41337   41349       1   41346   41352   41361       1
   41343   41352   41361       1   41337   41346   41358       1   41334   41328
   41340       1   41334   41343   41355       1   41328   41319   41331       1
   41325   41337   41349       1   41319   41328   41340       1   41316   41304
   41322       1   41304   41283   41307       1   41301   41319   41331       1
   41295   41277   41298       1   41286   41268   41289       1   41286   41274
   41292       1   41283   41304   41322       1   41280   41295   41313       1
   41277   41295   41313       1   41274   41286   41310       1   41268   41259
   41271       1   41268   41286   41310       1   41265   41283   41307       1
   41262   41274   41292       1   41262   41277   41298       1   41259   41268
   41289       1   41256   41259   41271       1   41460   41451   41463       1
   41460   41454   41466       1   41454   41445   41457       1   41454   41460
   41469       1   41451   41460   41469       1   41445   41454   41466       1
   41442   41436   41448       1   41442   41451   41463       1   41436   41427
   41439       1   41433   41445   41457       1   41427   41436   41448       1
   41424   41412   41430       1   41412   41391   41415       1   41409   41427
   41439       1   41403   41385   41406       1   41394   41376   41397       1
   41394   41382   41400       1   41391   41412   41430       1   41388   41403
   41421       1   41385   41403   41421       1   41382   41394   41418       1
   41376   41367   41379       1   41376   41394   41418       1   41373   41391
   41415       1   41370   41382   41400       1   41370   41385   41406       1
   41367   41376   41397       1   41364   41367   41379       1   41568   41559
   41571       1   41568   41562   41574       1   41562   41553   41565       1
   41562   41568   41577       1   41559   41568   41577       1   41553   41562
   41574       1   41550   41544   41556       1   41550   41559   41571       1
   41544   41535   41547       1   41541   41553   41565       1   41535   41544
   41556       1   41532   41520   41538       1   41520   41499   41523       1
   41517   41535   41547       1   41511   41493   41514       1   41502   41484
   41505       1   41502   41490   41508       1   41499   41520   41538       1
   41496   41511   41529       1   41493   41511   41529       1   41490   41502
   41526       1   41484   41475   41487       1   41484   41502   41526       1
   41481   41499   41523       1   41478   41490   41508       1   41478   41493
   41514       1   41475   41484   41505       1   41472   41475   41487       1
   41676   41667   41679       1   41676   41670   41682       1   41670   41661
   41673       1   41670   41676   41685       1   41667   41676   41685       1
   41661   41670   41682       1   41658   41652   41664       1   41658   41667
   41679       1   41652   41643   41655       1   41649   41661   41673       1
   41643   41652   41664       1   41640   41628   41646       1   41628   41607
   41631       1   41625   41643   41655       1   41619   41601   41622       1
   41610   41592   41613       1   41610   41598   41616       1   41607   41628
   41646       1   41604   41619   41637       1   41601   41619   41637       1
   41598   41610   41634       1   41592   41583   41595       1   41592   41610
   41634       1   41589   41607   41631       1   41586   41598   41616       1
   41586   41601   41622       1   41583   41592   41613       1   41580   41583
   41595       1   41784   41775   41787       1   41784   41778   41790       1
   41778   41769   41781       1   41778   41784   41793       1   41775   41784
   41793       1   41769   41778   41790       1   41766   41760   41772       1
   41766   41775   41787       1   41760   41751   41763       1   41757   41769
   41781       1   41751   41760   41772       1   41748   41736   41754       1
   41736   41715   41739       1   41733   41751   41763       1   41727   41709
   41730       1   41718   41700   41721       1   41718   41706   41724       1
   41715   41736   41754       1   41712   41727   41745       1   41709   41727
   41745       1   41706   41718   41742       1   41700   41691   41703       1
   41700   41718   41742       1   41697   41715   41739       1   41694   41706
   41724       1   41694   41709   41730       1   41691   41700   41721       1
   41688   41691   41703       1   41892   41883   41895       1   41892   41886
   41898       1   41886   41877   41889       1   41886   41892   41901       1
   41883   41892   41901       1   41877   41886   41898       1   41874   41868
   41880       1   41874   41883   41895       1   41868   41859   41871       1
   41865   41877   41889       1   41859   41868   41880       1   41856   41844
   41862       1   41844   41823   41847       1   41841   41859   41871       1
   41835   41817   41838       1   41826   41808   41829       1   41826   41814
   41832       1   41823   41844   41862       1   41820   41835   41853       1
   41817   41835   41853       1   41814   41826   41850       1   41808   41799
   41811       1   41808   41826   41850       1   41805   41823   41847       1
   41802   41814   41832       1   41802   41817   41838       1   41799   41808
   41829       1   41796   41799   41811       1   42000   41991   42003       1
   42000   41994   42006       1   41994   41985   41997       1   41994   42000
   42009       1   41991   42000   42009       1   41985   41994   42006       1
   41982   41976   41988       1   41982   41991   42003       1   41976   41967
   41979       1   41973   41985   41997       1   41967   41976   41988       1
   41964   41952   41970       1   41952   41931   41955       1   41949   41967
   41979       1   41943   41925   41946       1   41934   41916   41937       1
   41934   41922   41940       1   41931   41952   41970       1   41928   41943
   41961       1   41925   41943   41961       1   41922   41934   41958       1
   41916   41907   41919       1   41916   41934   41958       1   41913   41931
   41955       1   41910   41922   41940       1   41910   41925   41946       1
   41907   41916   41937       1   41904   41907   41919       1   42108   42099
   42111       1   42108   42102   42114       1   42102   42093   42105       1
   42102   42108   42117       1   42099   42108   42117       1   42093   42102
   42114       1   42090   42084   42096       1   42090   42099   42111       1
   42084   42075   42087       1   42081   42093   42105       1   42075   42084
   42096       1   42072   42060   42078       1   42060   42039   42063       1
   42057   42075   42087       1   42051   42033   42054       1   42042   42024
   42045       1   42042   42030   42048       1   42039   42060   42078       1
   42036   42051   42069       1   42033   42051   42069       1   42030   42042
   42066       1   42024   42015   42027       1   42024   42042   42066       1
   42021   42039   42063       1   42018   42030   42048       1   42018   42033
   42054       1   42015   42024   42045       1   42012   42015   42027       1
   42216   42207   42219       1   42216   42210   42222       1   42210   42201
   42213       1   42210   42216   42225       1   42207   42216   42225       1
   42201   42210   42222       1   42198   42192   42204       1   42198   42207
   42219       1   42192   42183   42195       1   42189   42201   42213       1
   42183   42192   42204       1   42180   42168   42186       1   42168   42147
   42171       1   42165   42183   42195       1   42159   42141   42162       1
   42150   42132   42153       1   42150   42138   42156       1   42147   42168
   42186       1   42144   42159   42177       1   42141   42159   42177       1
   42138   42150   42174       1   42132   42123   42135       1   42132   42150
   42174       1   42129   42147   42171       1   42126   42138   42156       1
   42126   42141   42162       1   42123   42132   42153       1   42120   42123
   42135       1   42324   42315   42327       1   42324   42318   42330       1
   42318   42309   42321       1   42318   42324   42333       1   42315   42324
   42333       1   42309   42318   42330       1   42306   42300   42312       1
   42306   42315   42327       1   42300   42291   42303       1   42297   42309
   42321       1   42291   42300   42312       1   42288   42276   42294       1
   42276   42255   42279       1   42273   42291   42303       1   42267   42249
   42270       1   42258   42240   42261       1   42258   42246   42264       1
   42255   42276   42294       1   42252   42267   42285       1   42249   42267
   42285       1   42246   42258   42282       1   42240   42231   42243       1
   42240   42258   42282       1   42237   42255   42279       1   42234   42246
   42264       1   42234   42249   42270       1   42231   42240   42261       1
   42228   42231   42243       1   42432   42423   42435       1   42432   42426
   42438       1   42426   42417   42429       1   42426   42432   42441       1
   42423   42432   42441       1   42417   42426   42438       1   42414   42408
   42420       1   42414   42423   42435       1   42408   42399   42411       1
   42405   42417   42429       1   42399   42408   42420       1   42396   42384
   42402       1   42384   42363   42387       1   42381   42399   42411       1
   42375   42357   42378       1   42366   42348   42369       1   42366   42354
   42372       1   42363   42384   42402       1   42360   42375   42393       1
   42357   42375   42393       1   42354   42366   42390       1   42348   42339
   42351       1   42348   42366   42390       1   42345   42363   42387       1
   42342   42354   42372       1   42342   42357   42378       1   42339   42348
   42369       1   42336   42339   42351       1   42540   42531   42543       1
   42540   42534   42546       1   42534   42525   42537       1   42534   42540
   42549       1   42531   42540   42549       1   42525   42534   42546       1
   42522   42516   42528       1   42522   42531   42543       1   42516   42507
   42519       1   42513   42525   42537       1   42507   42516   42528       1
   42504   42492   42510       1   42492   42471   42495       1   42489   42507
   42519       1   42483   42465   42486       1   42474   42456   42477       1
   42474   42462   42480       1   42471   42492   42510       1   42468   42483
   42501       1   42465   42483   42501       1   42462   42474   42498       1
   42456   42447   42459       1   42456   42474   42498       1   42453   42471
   42495       1   42450   42462   42480       1   42450   42465   42486       1
   42447   42456   42477       1   42444   42447   42459       1   42648   42639
   42651       1   42648   42642   42654       1   42642   42633   42645       1
   42642   42648   42657       1   42639   42648   42657       1   42633   42642
   42654       1   42630   42624   42636       1   42630   42639   42651       1
   42624   42615   42627       1   42621   42633   42645       1   42615   42624
   42636       1   42612   42600   42618       1   42600   42579   42603       1
   42597   42615   42627       1   42591   42573   42594       1   42582   42564
   42585       1   42582   42570   42588       1   42579   42600   42618       1
   42576   42591   42609       1   42573   42591   42609       1   42570   42582
   42606       1   42564   42555   42567       1   42564   42582   42606       1
   42561   42579   42603       1   42558   42570   42588       1   42558   42573
   42594       1   42555   42564   42585       1   42552   42555   42567       1
   42756   42747   42759       1   42756   42750   42762       1   42750   42741
   42753       1   42750   42756   42765       1   42747   42756   42765       1
   42741   42750   42762       1   42738   42732   42744       1   42738   42747
   42759       1   42732   42723   42735       1   42729   42741   42753       1
   42723   42732   42744       1   42720   42708   42726       1   42708   42687
   42711       1   42705   42723   42735       1   42699   42681   42702       1
   42690   42672   42693       1   42690   42678   42696       1   42687   42708
   42726       1   42684   42699   42717       1   42681   42699   42717       1
   42678   42690   42714       1   42672   42663   42675       1   42672   42690
   42714       1   42669   42687   42711       1   42666   42678   42696       1
   42666   42681   42702       1   42663   42672   42693       1   42660   42663
   42675       1   42864   42855   42867       1   42864   42858   42870       1
   42858   42849   42861       1   42858   42864   42873       1   42855   42864
   42873       1   42849   42858   42870       1   42846   42840   42852       1
   42846   42855   42867       1   42840   42831   42843       1   42837   42849
   42861       1   42831   42840   42852       1   42828   42816   42834       1
   42816   42795   42819       1   42813   42831   42843       1   42807   42789
   42810       1   42798   42780   42801       1   42798   42786   42804       1
   42795   42816   42834       1   42792   42807   42825       1   42789   42807
   42825       1   42786   42798   42822       1   42780   42771   42783       1
   42780   42798   42822       1   42777   42795   42819       1   42774   42786
   42804       1   42774   42789   42810       1   42771   42780   42801       1
   42768   42771   42783       1   42972   42963   42975       1   42972   42966
   42978       1   42966   42957   42969       1   42966   42972   42981       1
   42963   42972   42981       1   42957   42966   42978       1   42954   42948
   42960       1   42954   42963   42975       1   42948   42939   42951       1
   42945   42957   42969       1   42939   42948   42960       1   42936   42924
   42942       1   42924   42903   42927       1   42921   42939   42951       1
   42915   42897   42918       1   42906   42888   42909       1   42906   42894
   42912       1   42903   42924   42942       1   42900   42915   42933       1
   42897   42915   42933       1   42894   42906   42930       1   42888   42879
   42891       1   42888   42906   42930       1   42885   42903   42927       1
   42882   42894   42912       1   42882   42897   42918       1   42879   42888
   42909       1   42876   42879   42891       1   43080   43071   43083       1
   43080   43074   43086       1   43074   43065   43077       1   43074   43080
   43089       1   43071   43080   43089       1   43065   43074   43086       1
   43062   43056   43068       1   43062   43071   43083       1   43056   43047
   43059       1   43053   43065   43077       1   43047   43056   43068       1
   43044   43032   43050       1   43032   43011   43035       1   43029   43047
   43059       1   43023   43005   43026       1   43014   42996   43017       1
   43014   43002   43020       1   43011   43032   43050       1   43008   43023
   43041       1   43005   43023   43041       1   43002   43014   43038       1
   42996   42987   42999       1   42996   43014   43038       1   42993   43011
   43035       1   42990   43002   43020       1   42990   43005   43026       1
   42987   42996   43017       1   42984   42987   42999       1   43188   43179
   43191       1   43188   43182   43194       1   43182   43173   43185       1
   43182   43188   43197       1   43179   43188   43197       1   43173   43182
   43194       1   43170   43164   43176       1   43170   43179   43191       1
   43164   43155   43167       1   43161   43173   43185       1   43155   43164
   43176       1   43152   43140   43158       1   43140   43119   43143       1
   43137   43155   43167       1   43131   43113   43134       1   43122   43104
   43125       1   43122   43110   43128       1   43119   43140   43158       1
   43116   43131   43149       1   43113   43131   43149       1   43110   43122
   43146       1   43104   43095   43107       1   43104   43122   43146       1
   43101   43119   43143       1   43098   43110   43128       1   43098   43113
   43134       1   43095   43104   43125       1   43092   43095   43107       1
   43296   43287   43299       1   43296   43290   43302       1   43290   43281
   43293       1   43290   43296   43305       1   43287   43296   43305       1
   43281   43290   43302       1   43278   43272   43284       1   43278   43287
   43299       1   43272   43263   43275       1   43269   43281   43293       1
   43263   43272   43284       1   43260   43248   43266       1   43248   43227
   43251       1   43245   43263   43275       1   43239   43221   43242       1
   43230   43212   43233       1   43230   43218   43236       1   43227   43248
   43266       1   43224   43239   43257       1   43221   43239   43257       1
   43218   43230   43254       1   43212   43203   43215       1   43212   43230
   43254       1   43209   43227   43251       1   43206   43218   43236       1
   43206   43221   43242       1   43203   43212   43233       1   43200   43203
   43215       1   43404   43395   43407       1   43404   43398   43410       1
   43398   43389   43401       1   43398   43404   43413       1   43395   43404
   43413       1   43389   43398   43410       1   43386   43380   43392       1
   43386   43395   43407       1   43380   43371   43383       1   43377   43389
   43401       1   43371   43380   43392       1   43368   43356   43374       1
   43356   43335   43359       1   43353   43371   43383       1   43347   43329
   43350       1   43338   43320   43341       1   43338   43326   43344       1
   43335   43356   43374       1   43332   43347   43365       1   43329   43347
   43365       1   43326   43338   43362       1   43320   43311   43323       1
   43320   43338   43362       1   43317   43335   43359       1   43314   43326
   43344       1   43314   43329   43350       1   43311   43320   43341       1
   43308   43311   43323       1   43512   43503   43515       1   43512   43506
   43518       1   43506   43497   43509       1   43506   43512   43521       1
   43503   43512   43521       1   43497   43506   43518       1   43494   43488
   43500       1   43494   43503   43515       1   43488   43479   43491       1
   43485   43497   43509       1   43479   43488   43500       1   43476   43464
   43482       1   43464   43443   43467       1   43461   43479   43491       1
   43455   43437   43458       1   43446   43428   43449       1   43446   43434
   43452       1   43443   43464   43482       1   43440   43455   43473       1
   43437   43455   43473       1   43434   43446   43470       1   43428   43419
   43431       1   43428   43446   43470       1   43425   43443   43467       1
   43422   43434   43452       1   43422   43437   43458       1   43419   43428
   43449       1   43416   43419   43431       1   43620   43611   43623       1
   43620   43614   43626       1   43614   43605   43617       1   43614   43620
   43629       1   43611   43620   43629       1   43605   43614   43626       1
   43602   43596   43608       1   43602   43611   43623       1   43596   43587
   43599       1   43593   43605   43617       1   43587   43596   43608       1
   43584   43572   43590       1   43572   43551   43575       1   43569   43587
   43599       1   43563   43545   43566       1   43554   43536   43557       1
   43554   43542   43560       1   43551   43572   43590       1   43548   43563
   43581       1   43545   43563   43581       1   43542   43554   43578       1
   43536   43527   43539       1   43536   43554   43578       1   43533   43551
   43575       1   43530   43542   43560       1   43530   43545   43566       1
   43527   43536   43557       1   43524   43527   43539       1   43728   43719
   43731       1   43728   43722   43734       1   43722   43713   43725       1
   43722   43728   43737       1   43719   43728   43737       1   43713   43722
   43734       1   43710   43704   43716       1   43710   43719   43731       1
   43704   43695   43707       1   43701   43713   43725       1   43695   43704
   43716       1   43692   43680   43698       1   43680   43659   43683       1
   43677   43695   43707       1   43671   43653   43674       1   43662   43644
   43665       1   43662   43650   43668       1   43659   43680   43698       1
   43656   43671   43689       1   43653   43671   43689       1   43650   43662
   43686       1   43644   43635   43647       1   43644   43662   43686       1
   43641   43659   43683       1   43638   43650   43668       1   43638   43653
   43674       1   43635   43644   43665       1   43632   43635   43647       1
   43836   43827   43839       1   43836   43830   43842       1   43830   43821
   43833       1   43830   43836   43845       1   43827   43836   43845       1
   43821   43830   43842       1   43818   43812   43824       1   43818   43827
   43839       1   43812   43803   43815       1   43809   43821   43833       1
   43803   43812   43824       1   43800   43788   43806       1   43788   43767
   43791       1   43785   43803   43815       1   43779   43761   43782       1
   43770   43752   43773       1   43770   43758   43776       1   43767   43788
   43806       1   43764   43779   43797       1   43761   43779   43797       1
   43758   43770   43794       1   43752   43743   43755       1   43752   43770
   43794       1   43749   43767   43791       1   43746   43758   43776       1
   43746   43761   43782       1   43743   43752   43773       1   43740   43743
   43755       1   43944   43935   43947       1   43944   43938   43950       1
   43938   43929   43941       1   43938   43944   43953       1   43935   43944
   43953       1   43929   43938   43950       1   43926   43920   43932       1
   43926   43935   43947       1   43920   43911   43923       1   43917   43929
   43941       1   43911   43920   43932       1   43908   43896   43914       1
   43896   43875   43899       1   43893   43911   43923       1   43887   43869
   43890       1   43878   43860   43881       1   43878   43866   43884       1
   43875   43896   43914       1   43872   43887   43905       1   43869   43887
   43905       1   43866   43878   43902       1   43860   43851   43863       1
   43860   43878   43902       1   43857   43875   43899       1   43854   43866
   43884       1   43854   43869   43890       1   43851   43860   43881       1
   43848   43851   43863       1   44052   44043   44055       1   44052   44046
   44058       1   44046   44037   44049       1   44046   44052   44061       1
   44043   44052   44061       1   44037   44046   44058       1   44034   44028
   44040       1   44034   44043   44055       1   44028   44019   44031       1
   44025   44037   44049       1   44019   44028   44040       1   44016   44004
   44022       1   44004   43983   44007       1   44001   44019   44031       1
   43995   43977   43998       1   43986   43968   43989       1   43986   43974
   43992       1   43983   44004   44022       1   43980   43995   44013       1
   43977   43995   44013       1   43974   43986   44010       1   43968   43959
   43971       1   43968   43986   44010       1   43965   43983   44007       1
   43962   43974   43992       1   43962   43977   43998       1   43959   43968
   43989       1   43956   43959   43971       1   44160   44151   44163       1
   44160   44154   44166       1   44154   44145   44157       1   44154   44160
   44169       1   44151   44160   44169       1   44145   44154   44166       1
   44142   44136   44148       1   44142   44151   44163       1   44136   44127
   44139       1   44133   44145   44157       1   44127   44136   44148       1
   44124   44112   44130       1   44112   44091   44115       1   44109   44127
   44139       1   44103   44085   44106       1   44094   44076   44097       1
   44094   44082   44100       1   44091   44112   44130       1   44088   44103
   44121       1   44085   44103   44121       1   44082   44094   44118       1
   44076   44067   44079       1   44076   44094   44118       1   44073   44091
   44115       1   44070   44082   44100       1   44070   44085   44106       1
   44067   44076   44097       1   44064   44067   44079       1   44268   44259
   44271       1   44268   44262   44274       1   44262   44253   44265       1
   44262   44268   44277       1   44259   44268   44277       1   44253   44262
   44274       1   44250   44244   44256       1   44250   44259   44271       1
   44244   44235   44247       1   44241   44253   44265       1   44235   44244
   44256       1   44232   44220   44238       1   44220   44199   44223       1
   44217   44235   44247       1   44211   44193   44214       1   44202   44184
   44205       1   44202   44190   44208       1   44199   44220   44238       1
   44196   44211   44229       1   44193   44211   44229       1   44190   44202
   44226       1   44184   44175   44187       1   44184   44202   44226       1
   44181   44199   44223       1   44178   44190   44208       1   44178   44193
   44214       1   44175   44184   44205       1   44172   44175   44187       1
   44376   44367   44379       1   44376   44370   44382       1   44370   44361
   44373       1   44370   44376   44385       1   44367   44376   44385       1
   44361   44370   44382       1   44358   44352   44364       1   44358   44367
   44379       1   44352   44343   44355       1   44349   44361   44373       1
   44343   44352   44364       1   44340   44328   44346       1   44328   44307
   44331       1   44325   44343   44355       1   44319   44301   44322       1
   44310   44292   44313       1   44310   44298   44316       1   44307   44328
   44346       1   44304   44319   44337       1   44301   44319   44337       1
   44298   44310   44334       1   44292   44283   44295       1   44292   44310
   44334       1   44289   44307   44331       1   44286   44298   44316       1
   44286   44301   44322       1   44283   44292   44313       1   44280   44283
   44295       1   44484   44475   44487       1   44484   44478   44490       1
   44478   44469   44481       1   44478   44484   44493       1   44475   44484
   44493       1   44469   44478   44490       1   44466   44460   44472       1
   44466   44475   44487       1   44460   44451   44463       1   44457   44469
   44481       1   44451   44460   44472       1   44448   44436   44454       1
   44436   44415   44439       1   44433   44451   44463       1   44427   44409
   44430       1   44418   44400   44421       1   44418   44406   44424       1
   44415   44436   44454       1   44412   44427   44445       1   44409   44427
   44445       1   44406   44418   44442       1   44400   44391   44403       1
   44400   44418   44442       1   44397   44415   44439       1   44394   44406
   44424       1   44394   44409   44430       1   44391   44400   44421       1
   44388   44391   44403       1   44592   44583   44595       1   44592   44586
   44598       1   44586   44577   44589       1   44586   44592   44601       1
   44583   44592   44601       1   44577   44586   44598       1   44574   44568
   44580       1   44574   44583   44595       1   44568   44559   44571       1
   44565   44577   44589       1   44559   44568   44580       1   44556   44544
   44562       1   44544   44523   44547       1   44541   44559   44571       1
   44535   44517   44538       1   44526   44508   44529       1   44526   44514
   44532       1   44523   44544   44562       1   44520   44535   44553       1
   44517   44535   44553       1   44514   44526   44550       1   44508   44499
   44511       1   44508   44526   44550       1   44505   44523   44547       1
   44502   44514   44532       1   44502   44517   44538       1   44499   44508
   44529       1   44496   44499   44511       1   44700   44691   44703       1
   44700   44694   44706       1   44694   44685   44697       1   44694   44700
   44709       1   44691   44700   44709       1   44685   44694   44706       1
   44682   44676   44688       1   44682   44691   44703       1   44676   44667
   44679       1   44673   44685   44697       1   44667   44676   44688       1
   44664   44652   44670       1   44652   44631   44655       1   44649   44667
   44679       1   44643   44625   44646       1   44634   44616   44637       1
   44634   44622   44640       1   44631   44652   44670       1   44628   44643
   44661       1   44625   44643   44661       1   44622   44634   44658       1
   44616   44607   44619       1   44616   44634   44658       1   44613   44631
   44655       1   44610   44622   44640       1   44610   44625   44646       1
   44607   44616   44637       1   44604   44607   44619       1   44808   44799
   44811       1   44808   44802   44814       1   44802   44793   44805       1
   44802   44808   44817       1   44799   44808   44817       1   44793   44802
   44814       1   44790   44784   44796       1   44790   44799   44811       1
   44784   44775   44787       1   44781   44793   44805       1   44775   44784
   44796       1   44772   44760   44778       1   44760   44739   44763       1
   44757   44775   44787       1   44751   44733   44754       1   44742   44724
   44745       1   44742   44730   44748       1   44739   44760   44778       1
   44736   44751   44769       1   44733   44751   44769       1   44730   44742
   44766       1   44724   44715   44727       1   44724   44742   44766       1
   44721   44739   44763       1   44718   44730   44748       1   44718   44733
   44754       1   44715   44724   44745       1   44712   44715   44727       1
   44916   44907   44919       1   44916   44910   44922       1   44910   44901
   44913       1   44910   44916   44925       1   44907   44916   44925       1
   44901   44910   44922       1   44898   44892   44904       1   44898   44907
   44919       1   44892   44883   44895       1   44889   44901   44913       1
   44883   44892   44904       1   44880   44868   44886       1   44868   44847
   44871       1   44865   44883   44895       1   44859   44841   44862       1
   44850   44832   44853       1   44850   44838   44856       1   44847   44868
   44886       1   44844   44859   44877       1   44841   44859   44877       1
   44838   44850   44874       1   44832   44823   44835       1   44832   44850
   44874       1   44829   44847   44871       1   44826   44838   44856       1
   44826   44841   44862       1   44823   44832   44853       1   44820   44823
   44835       1   45024   45015   45027       1   45024   45018   45030       1
   45018   45009   45021       1   45018   45024   45033       1   45015   45024
   45033       1   45009   45018   45030       1   45006   45000   45012       1
   45006   45015   45027       1   45000   44991   45003       1   44997   45009
   45021       1   44991   45000   45012       1   44988   44976   44994       1
   44976   44955   44979       1   44973   44991   45003       1   44967   44949
   44970       1   44958   44940   44961       1   44958   44946   44964       1
   44955   44976   44994       1   44952   44967   44985       1   44949   44967
   44985       1   44946   44958   44982       1   44940   44931   44943       1
   44940   44958   44982       1   44937   44955   44979       1   44934   44946
   44964       1   44934   44949   44970       1   44931   44940   44961       1
   44928   44931   44943       1   45132   45123   45135       1   45132   45126
   45138       1   45126   45117   45129       1   45126   45132   45141       1
   45123   45132   45141       1   45117   45126   45138       1   45114   45108
   45120       1   45114   45123   45135       1   45108   45099   45111       1
   45105   45117   45129       1   45099   45108   45120       1   45096   45084
   45102       1   45084   45063   45087       1   45081   45099   45111       1
   45075   45057   45078       1   45066   45048   45069       1   45066   45054
   45072       1   45063   45084   45102       1   45060   45075   45093       1
   45057   45075   45093       1   45054   45066   45090       1   45048   45039
   45051       1   45048   45066   45090       1   45045   45063   45087       1
   45042   45054   45072       1   45042   45057   45078       1   45039   45048
   45069       1   45036   45039   45051       1   45240   45231   45243       1
   45240   45234   45246       1   45234   45225   45237       1   45234   45240
   45249       1   45231   45240   45249       1   45225   45234   45246       1
   45222   45216   45228       1   45222   45231   45243       1   45216   45207
   45219       1   45213   45225   45237       1   45207   45216   45228       1
   45204   45192   45210       1   45192   45171   45195       1   45189   45207
   45219       1   45183   45165   45186       1   45174   45156   45177       1
   45174   45162   45180       1   45171   45192   45210       1   45168   45183
   45201       1   45165   45183   45201       1   45162   45174   45198       1
   45156   45147   45159       1   45156   45174   45198       1   45153   45171
   45195       1   45150   45162   45180       1   45150   45165   45186       1
   45147   45156   45177       1   45144   45147   45159       1   45348   45339
   45351       1   45348   45342   45354       1   45342   45333   45345       1
   45342   45348   45357       1   45339   45348   45357       1   45333   45342
   45354       1   45330   45324   45336       1   45330   45339   45351       1
   45324   45315   45327       1   45321   45333   45345       1   45315   45324
   45336       1   45312   45300   45318       1   45300   45279   45303       1
   45297   45315   45327       1   45291   45273   45294       1   45282   45264
   45285       1   45282   45270   45288       1   45279   45300   45318       1
   45276   45291   45309       1   45273   45291   45309       1   45270   45282
   45306       1   45264   45255   45267       1   45264   45282   45306       1
   45261   45279   45303       1   45258   45270   45288       1   45258   45273
   45294       1   45255   45264   45285       1   45252   45255   45267       1
   45456   45447   45459       1   45456   45450   45462       1   45450   45441
   45453       1   45450   45456   45465       1   45447   45456   45465       1
   45441   45450   45462       1   45438   45432   45444       1   45438   45447
   45459       1   45432   45423   45435       1   45429   45441   45453       1
   45423   45432   45444       1   45420   45408   45426       1   45408   45387
   45411       1   45405   45423   45435       1   45399   45381   45402       1
   45390   45372   45393       1   45390   45378   45396       1   45387   45408
   45426       1   45384   45399   45417       1   45381   45399   45417       1
   45378   45390   45414       1   45372   45363   45375       1   45372   45390
   45414       1   45369   45387   45411       1   45366   45378   45396       1
   45366   45381   45402       1   45363   45372   45393       1   45360   45363
   45375       1   45564   45555   45567       1   45564   45558   45570       1
   45558   45549   45561       1   45558   45564   45573       1   45555   45564
   45573       1   45549   45558   45570       1   45546   45540   45552       1
   45546   45555   45567       1   45540   45531   45543       1   45537   45549
   45561       1   45531   45540   45552       1   45528   45516   45534       1
   45516   45495   45519       1   45513   45531   45543       1   45507   45489
   45510       1   45498   45480   45501       1   45498   45486   45504       1
   45495   45516   45534       1   45492   45507   45525       1   45489   45507
   45525       1   45486   45498   45522       1   45480   45471   45483       1
   45480   45498   45522       1   45477   45495   45519       1   45474   45486
   45504       1   45474   45489   45510       1   45471   45480   45501       1
   45468   45471   45483       1   45672   45663   45675       1   45672   45666
   45678       1   45666   45657   45669       1   45666   45672   45681       1
   45663   45672   45681       1   45657   45666   45678       1   45654   45648
   45660       1   45654   45663   45675       1   45648   45639   45651       1
   45645   45657   45669       1   45639   45648   45660       1   45636   45624
   45642       1   45624   45603   45627       1   45621   45639   45651       1
   45615   45597   45618       1   45606   45588   45609       1   45606   45594
   45612       1   45603   45624   45642       1   45600   45615   45633       1
   45597   45615   45633       1   45594   45606   45630       1   45588   45579
   45591       1   45588   45606   45630       1   45585   45603   45627       1
   45582   45594   45612       1   45582   45597   45618       1   45579   45588
   45609       1   45576   45579   45591       1   45780   45771   45783       1
   45780   45774   45786       1   45774   45765   45777       1   45774   45780
   45789       1   45771   45780   45789       1   45765   45774   45786       1
   45762   45756   45768       1   45762   45771   45783       1   45756   45747
   45759       1   45753   45765   45777       1   45747   45756   45768       1
   45744   45732   45750       1   45732   45711   45735       1   45729   45747
   45759       1   45723   45705   45726       1   45714   45696   45717       1
   45714   45702   45720       1   45711   45732   45750       1   45708   45723
   45741       1   45705   45723   45741       1   45702   45714   45738       1
   45696   45687   45699       1   45696   45714   45738       1   45693   45711
   45735       1   45690   45702   45720       1   45690   45705   45726       1
   45687   45696   45717       1   45684   45687   45699       1   45888   45879
   45891       1   45888   45882   45894       1   45882   45873   45885       1
   45882   45888   45897       1   45879   45888   45897       1   45873   45882
   45894       1   45870   45864   45876       1   45870   45879   45891       1
   45864   45855   45867       1   45861   45873   45885       1   45855   45864
   45876       1   45852   45840   45858       1   45840   45819   45843       1
   45837   45855   45867       1   45831   45813   45834       1   45822   45804
   45825       1   45822   45810   45828       1   45819   45840   45858       1
   45816   45831   45849       1   45813   45831   45849       1   45810   45822
   45846       1   45804   45795   45807       1   45804   45822   45846       1
   45801   45819   45843       1   45798   45810   45828       1   45798   45813
   45834       1   45795   45804   45825       1   45792   45795   45807       1
   45996   45987   45999       1   45996   45990   46002       1   45990   45981
   45993       1   45990   45996   46005       1   45987   45996   46005       1
   45981   45990   46002       1   45978   45972   45984       1   45978   45987
   45999       1   45972   45963   45975       1   45969   45981   45993       1
   45963   45972   45984       1   45960   45948   45966       1   45948   45927
   45951       1   45945   45963   45975       1   45939   45921   45942       1
   45930   45912   45933       1   45930   45918   45936       1   45927   45948
   45966       1   45924   45939   45957       1   45921   45939   45957       1
   45918   45930   45954       1   45912   45903   45915       1   45912   45930
   45954       1   45909   45927   45951       1   45906   45918   45936       1
   45906   45921   45942       1   45903   45912   45933       1   45900   45903
   45915       1   46104   46095   46107       1   46104   46098   46110       1
   46098   46089   46101       1   46098   46104   46113       1   46095   46104
   46113       1   46089   46098   46110       1   46086   46080   46092       1
   46086   46095   46107       1   46080   46071   46083       1   46077   46089
   46101       1   46071   46080   46092       1   46068   46056   46074       1
   46056   46035   46059       1   46053   46071   46083       1   46047   46029
   46050       1   46038   46020   46041       1   46038   46026   46044       1
   46035   46056   46074       1   46032   46047   46065       1   46029   46047
   46065       1   46026   46038   46062       1   46020   46011   46023       1
   46020   46038   46062       1   46017   46035   46059       1   46014   46026
   46044       1   46014   46029   46050       1   46011   46020   46041       1
   46008   46011   46023       1   46212   46203   46215       1   46212   46206
   46218       1   46206   46197   46209       1   46206   46212   46221       1
   46203   46212   46221       1   46197   46206   46218       1   46194   46188
   46200       1   46194   46203   46215       1   46188   46179   46191       1
   46185   46197   46209       1   46179   46188   46200       1   46176   46164
   46182       1   46164   46143   46167       1   46161   46179   46191       1
   46155   46137   46158       1   46146   46128   46149       1   46146   46134
   46152       1   46143   46164   46182       1   46140   46155   46173       1
   46137   46155   46173       1   46134   46146   46170       1   46128   46119
   46131       1   46128   46146   46170       1   46125   46143   46167       1
   46122   46134   46152       1   46122   46137   46158       1   46119   46128
   46149       1   46116   46119   46131       1   46320   46311   46323       1
   46320   46314   46326       1   46314   46305   46317       1   46314   46320
   46329       1   46311   46320   46329       1   46305   46314   46326       1
   46302   46296   46308       1   46302   46311   46323       1   46296   46287
   46299       1   46293   46305   46317       1   46287   46296   46308       1
   46284   46272   46290       1   46272   46251   46275       1   46269   46287
   46299       1   46263   46245   46266       1   46254   46236   46257       1
   46254   46242   46260       1   46251   46272   46290       1   46248   46263
   46281       1   46245   46263   46281       1   46242   46254   46278       1
   46236   46227   46239       1   46236   46254   46278       1   46233   46251
   46275       1   46230   46242   46260       1   46230   46245   46266       1
   46227   46236   46257       1   46224   46227   46239       1   46428   46419
   46431       1   46428   46422   46434       1   46422   46413   46425       1
   46422   46428   46437       1   46419   46428   46437       1   46413   46422
   46434       1   46410   46404   46416       1   46410   46419   46431       1
   46404   46395   46407       1   46401   46413   46425       1   46395   46404
   46416       1   46392   46380   46398       1   46380   46359   46383       1
   46377   46395   46407       1   46371   46353   46374       1   46362   46344
   46365       1   46362   46350   46368       1   46359   46380   46398       1
   46356   46371   46389       1   46353   46371   46389       1   46350   46362
   46386       1   46344   46335   46347       1   46344   46362   46386       1
   46341   46359   46383       1   46338   46350   46368       1   46338   46353
   46374       1   46335   46344   46365       1   46332   46335   46347       1
   46536   46527   46539       1   46536   46530   46542       1   46530   46521
   46533       1   46530   46536   46545       1   46527   46536   46545       1
   46521   46530   46542       1   46518   46512   46524       1   46518   46527
   46539       1   46512   46503   46515       1   46509   46521   46533       1
   46503   46512   46524       1   46500   46488   46506       1   46488   46467
   46491       1   46485   46503   46515       1   46479   46461   46482       1
   46470   46452   46473       1   46470   46458   46476       1   46467   46488
   46506       1   46464   46479   46497       1   46461   46479   46497       1
   46458   46470   46494       1   46452   46443   46455       1   46452   46470
   46494       1   46449   46467   46491       1   46446   46458   46476       1
   46446   46461   46482       1   46443   46452   46473       1   46440   46443
   46455       1   46644   46635   46647       1   46644   46638   46650       1
   46638   46629   46641       1   46638   46644   46653       1   46635   46644
   46653       1   46629   46638   46650       1   46626   46620   46632       1
   46626   46635   46647       1   46620   46611   46623       1   46617   46629
   46641       1   46611   46620   46632       1   46608   46596   46614       1
   46596   46575   46599       1   46593   46611   46623       1   46587   46569
   46590       1   46578   46560   46581       1   46578   46566   46584       1
   46575   46596   46614       1   46572   46587   46605       1   46569   46587
   46605       1   46566   46578   46602       1   46560   46551   46563       1
   46560   46578   46602       1   46557   46575   46599       1   46554   46566
   46584       1   46554   46569   46590       1   46551   46560   46581       1
   46548   46551   46563       1   46752   46743   46755       1   46752   46746
   46758       1   46746   46737   46749       1   46746   46752   46761       1
   46743   46752   46761       1   46737   46746   46758       1   46734   46728
   46740       1   46734   46743   46755       1   46728   46719   46731       1
   46725   46737   46749       1   46719   46728   46740       1   46716   46704
   46722       1   46704   46683   46707       1   46701   46719   46731       1
   46695   46677   46698       1   46686   46668   46689       1   46686   46674
   46692       1   46683   46704   46722       1   46680   46695   46713       1
   46677   46695   46713       1   46674   46686   46710       1   46668   46659
   46671       1   46668   46686   46710       1   46665   46683   46707       1
   46662   46674   46692       1   46662   46677   46698       1   46659   46668
   46689       1   46656   46659   46671       1   46860   46851   46863       1
   46860   46854   46866       1   46854   46845   46857       1   46854   46860
   46869       1   46851   46860   46869       1   46845   46854   46866       1
   46842   46836   46848       1   46842   46851   46863       1   46836   46827
   46839       1   46833   46845   46857       1   46827   46836   46848       1
   46824   46812   46830       1   46812   46791   46815       1   46809   46827
   46839       1   46803   46785   46806       1   46794   46776   46797       1
   46794   46782   46800       1   46791   46812   46830       1   46788   46803
   46821       1   46785   46803   46821       1   46782   46794   46818       1
   46776   46767   46779       1   46776   46794   46818       1   46773   46791
   46815       1   46770   46782   46800       1   46770   46785   46806       1
   46767   46776   46797       1   46764   46767   46779       1   46968   46959
   46971       1   46968   46962   46974       1   46962   46953   46965       1
   46962   46968   46977       1   46959   46968   46977       1   46953   46962
   46974       1   46950   46944   46956       1   46950   46959   46971       1
   46944   46935   46947       1   46941   46953   46965       1   46935   46944
   46956       1   46932   46920   46938       1   46920   46899   46923       1
   46917   46935   46947       1   46911   46893   46914       1   46902   46884
   46905       1   46902   46890   46908       1   46899   46920   46938       1
   46896   46911   46929       1   46893   46911   46929       1   46890   46902
   46926       1   46884   46875   46887       1   46884   46902   46926       1
   46881   46899   46923       1   46878   46890   46908       1   46878   46893
   46914       1   46875   46884   46905       1   46872   46875   46887       1
   47076   47067   47079       1   47076   47070   47082       1   47070   47061
   47073       1   47070   47076   47085       1   47067   47076   47085       1
   47061   47070   47082       1   47058   47052   47064       1   47058   47067
   47079       1   47052   47043   47055       1   47049   47061   47073       1
   47043   47052   47064       1   47040   47028   47046       1   47028   47007
   47031       1   47025   47043   47055       1   47019   47001   47022       1
   47010   46992   47013       1   47010   46998   47016       1   47007   47028
   47046       1   47004   47019   47037       1   47001   47019   47037       1
   46998   47010   47034       1   46992   46983   46995       1   46992   47010
   47034       1   46989   47007   47031       1   46986   46998   47016       1
   46986   47001   47022       1   46983   46992   47013       1   46980   46983
   46995       1   47184   47175   47187       1   47184   47178   47190       1
   47178   47169   47181       1   47178   47184   47193       1   47175   47184
   47193       1   47169   47178   47190       1   47166   47160   47172       1
   47166   47175   47187       1   47160   47151   47163       1   47157   47169
   47181       1   47151   47160   47172       1   47148   47136   47154       1
   47136   47115   47139       1   47133   47151   47163       1   47127   47109
   47130       1   47118   47100   47121       1   47118   47106   47124       1
   47115   47136   47154       1   47112   47127   47145       1   47109   47127
   47145       1   47106   47118   47142       1   47100   47091   47103       1
   47100   47118   47142       1   47097   47115   47139       1   47094   47106
   47124       1   47094   47109   47130       1   47091   47100   47121       1
   47088   47091   47103       1   47292   47283   47295       1   47292   47286
   47298       1   47286   47277   47289       1   47286   47292   47301       1
   47283   47292   47301       1   47277   47286   47298       1   47274   47268
   47280       1   47274   47283   47295       1   47268   47259   47271       1
   47265   47277   47289       1   47259   47268   47280       1   47256   47244
   47262       1   47244   47223   47247       1   47241   47259   47271       1
   47235   47217   47238       1   47226   47208   47229       1   47226   47214
   47232       1   47223   47244   47262       1   47220   47235   47253       1
   47217   47235   47253       1   47214   47226   47250       1   47208   47199
   47211       1   47208   47226   47250       1   47205   47223   47247       1
   47202   47214   47232       1   47202   47217   47238       1   47199   47208
   47229       1   47196   47199   47211       1   47400   47391   47403       1
   47400   47394   47406       1   47394   47385   47397       1   47394   47400
   47409       1   47391   47400   47409       1   47385   47394   47406       1
   47382   47376   47388       1   47382   47391   47403       1   47376   47367
   47379       1   47373   47385   47397       1   47367   47376   47388       1
   47364   47352   47370       1   47352   47331   47355       1   47349   47367
   47379       1   47343   47325   47346       1   47334   47316   47337       1
   47334   47322   47340       1   47331   47352   47370       1   47328   47343
   47361       1   47325   47343   47361       1   47322   47334   47358       1
   47316   47307   47319       1   47316   47334   47358       1   47313   47331
   47355       1   47310   47322   47340       1   47310   47325   47346       1
   47307   47316   47337       1   47304   47307   47319       1   47508   47499
   47511       1   47508   47502   47514       1   47502   47493   47505       1
   47502   47508   47517       1   47499   47508   47517       1   47493   47502
   47514       1   47490   47484   47496       1   47490   47499   47511       1
   47484   47475   47487       1   47481   47493   47505       1   47475   47484
   47496       1   47472   47460   47478       1   47460   47439   47463       1
   47457   47475   47487       1   47451   47433   47454       1   47442   47424
   47445       1   47442   47430   47448       1   47439   47460   47478       1
   47436   47451   47469       1   47433   47451   47469       1   47430   47442
   47466       1   47424   47415   47427       1   47424   47442   47466       1
   47421   47439   47463       1   47418   47430   47448       1   47418   47433
   47454       1   47415   47424   47445       1   47412   47415   47427       1
   47616   47607   47619       1   47616   47610   47622       1   47610   47601
   47613       1   47610   47616   47625       1   47607   47616   47625       1
   47601   47610   47622       1   47598   47592   47604       1   47598   47607
   47619       1   47592   47583   47595       1   47589   47601   47613       1
   47583   47592   47604       1   47580   47568   47586       1   47568   47547
   47571       1   47565   47583   47595       1   47559   47541   47562       1
   47550   47532   47553       1   47550   47538   47556       1   47547   47568
   47586       1   47544   47559   47577       1   47541   47559   47577       1
   47538   47550   47574       1   47532   47523   47535       1   47532   47550
   47574       1   47529   47547   47571       1   47526   47538   47556       1
   47526   47541   47562       1   47523   47532   47553       1   47520   47523
   47535       1   47724   47715   47727       1   47724   47718   47730       1
   47718   47709   47721       1   47718   47724   47733       1   47715   47724
   47733       1   47709   47718   47730       1   47706   47700   47712       1
   47706   47715   47727       1   47700   47691   47703       1   47697   47709
   47721       1   47691   47700   47712       1   47688   47676   47694       1
   47676   47655   47679       1   47673   47691   47703       1   47667   47649
   47670       1   47658   47640   47661       1   47658   47646   47664       1
   47655   47676   47694       1   47652   47667   47685       1   47649   47667
   47685       1   47646   47658   47682       1   47640   47631   47643       1
   47640   47658   47682       1   47637   47655   47679       1   47634   47646
   47664       1   47634   47649   47670       1   47631   47640   47661       1
   47628   47631   47643       1   47832   47823   47835       1   47832   47826
   47838       1   47826   47817   47829       1   47826   47832   47841       1
   47823   47832   47841       1   47817   47826   47838       1   47814   47808
   47820       1   47814   47823   47835       1   47808   47799   47811       1
   47805   47817   47829       1   47799   47808   47820       1   47796   47784
   47802       1   47784   47763   47787       1   47781   47799   47811       1
   47775   47757   47778       1   47766   47748   47769       1   47766   47754
   47772       1   47763   47784   47802       1   47760   47775   47793       1
   47757   47775   47793       1   47754   47766   47790       1   47748   47739
   47751       1   47748   47766   47790       1   47745   47763   47787       1
   47742   47754   47772       1   47742   47757   47778       1   47739   47748
   47769       1   47736   47739   47751       1   47940   47931   47943       1
   47940   47934   47946       1   47934   47925   47937       1   47934   47940
   47949       1   47931   47940   47949       1   47925   47934   47946       1
   47922   47916   47928       1   47922   47931   47943       1   47916   47907
   47919       1   47913   47925   47937       1   47907   47916   47928       1
   47904   47892   47910       1   47892   47871   47895       1   47889   47907
   47919       1   47883   47865   47886       1   47874   47856   47877       1
   47874   47862   47880       1   47871   47892   47910       1   47868   47883
   47901       1   47865   47883   47901       1   47862   47874   47898       1
   47856   47847   47859       1   47856   47874   47898       1   47853   47871
   47895       1   47850   47862   47880       1   47850   47865   47886       1
   47847   47856   47877       1   47844   47847   47859       1   48048   48039
   48051       1   48048   48042   48054       1   48042   48033   48045       1
   48042   48048   48057       1   48039   48048   48057       1   48033   48042
   48054       1   48030   48024   48036       1   48030   48039   48051       1
   48024   48015   48027       1   48021   48033   48045       1   48015   48024
   48036       1   48012   48000   48018       1   48000   47979   48003       1
   47997   48015   48027       1   47991   47973   47994       1   47982   47964
   47985       1   47982   47970   47988       1   47979   48000   48018       1
   47976   47991   48009       1   47973   47991   48009       1   47970   47982
   48006       1   47964   47955   47967       1   47964   47982   48006       1
   47961   47979   48003       1   47958   47970   47988       1   47958   47973
   47994       1   47955   47964   47985       1   47952   47955   47967       1
   48156   48147   48159       1   48156   48150   48162       1   48150   48141
   48153       1   48150   48156   48165       1   48147   48156   48165       1
   48141   48150   48162       1   48138   48132   48144       1   48138   48147
   48159       1   48132   48123   48135       1   48129   48141   48153       1
   48123   48132   48144       1   48120   48108   48126       1   48108   48087
   48111       1   48105   48123   48135       1   48099   48081   48102       1
   48090   48072   48093       1   48090   48078   48096       1   48087   48108
   48126       1   48084   48099   48117       1   48081   48099   48117       1
   48078   48090   48114       1   48072   48063   48075       1   48072   48090
   48114       1   48069   48087   48111       1   48066   48078   48096       1
   48066   48081   48102       1   48063   48072   48093       1   48060   48063
   48075       1   48264   48255   48267       1   48264   48258   48270       1
   48258   48249   48261       1   48258   48264   48273       1   48255   48264
   48273       1   48249   48258   48270       1   48246   48240   48252       1
   48246   48255   48267       1   48240   48231   48243       1   48237   48249
   48261       1   48231   48240   48252       1   48228   48216   48234       1
   48216   48195   48219       1   48213   48231   48243       1   48207   48189
   48210       1   48198   48180   48201       1   48198   48186   48204       1
   48195   48216   48234       1   48192   48207   48225       1   48189   48207
   48225       1   48186   48198   48222       1   48180   48171   48183       1
   48180   48198   48222       1   48177   48195   48219       1   48174   48186
   48204       1   48174   48189   48210       1   48171   48180   48201       1
   48168   48171   48183       1   48372   48363   48375       1   48372   48366
   48378       1   48366   48357   48369       1   48366   48372   48381       1
   48363   48372   48381       1   48357   48366   48378       1   48354   48348
   48360       1   48354   48363   48375       1   48348   48339   48351       1
   48345   48357   48369       1   48339   48348   48360       1   48336   48324
   48342       1   48324   48303   48327       1   48321   48339   48351       1
   48315   48297   48318       1   48306   48288   48309       1   48306   48294
   48312       1   48303   48324   48342       1   48300   48315   48333       1
   48297   48315   48333       1   48294   48306   48330       1   48288   48279
   48291       1   48288   48306   48330       1   48285   48303   48327       1
   48282   48294   48312       1   48282   48297   48318       1   48279   48288
   48309       1   48276   48279   48291       1   48480   48471   48483       1
   48480   48474   48486       1   48474   48465   48477       1   48474   48480
   48489       1   48471   48480   48489       1   48465   48474   48486       1
   48462   48456   48468       1   48462   48471   48483       1   48456   48447
   48459       1   48453   48465   48477       1   48447   48456   48468       1
   48444   48432   48450       1   48432   48411   48435       1   48429   48447
   48459       1   48423   48405   48426       1   48414   48396   48417       1
   48414   48402   48420       1   48411   48432   48450       1   48408   48423
   48441       1   48405   48423   48441       1   48402   48414   48438       1
   48396   48387   48399       1   48396   48414   48438       1   48393   48411
   48435       1   48390   48402   48420       1   48390   48405   48426       1
   48387   48396   48417       1   48384   48387   48399       1   48588   48579
   48591       1   48588   48582   48594       1   48582   48573   48585       1
   48582   48588   48597       1   48579   48588   48597       1   48573   48582
   48594       1   48570   48564   48576       1   48570   48579   48591       1
   48564   48555   48567       1   48561   48573   48585       1   48555   48564
   48576       1   48552   48540   48558       1   48540   48519   48543       1
   48537   48555   48567       1   48531   48513   48534       1   48522   48504
   48525       1   48522   48510   48528       1   48519   48540   48558       1
   48516   48531   48549       1   48513   48531   48549       1   48510   48522
   48546       1   48504   48495   48507       1   48504   48522   48546       1
   48501   48519   48543       1   48498   48510   48528       1   48498   48513
   48534       1   48495   48504   48525       1   48492   48495   48507       1
   48696   48687   48699       1   48696   48690   48702       1   48690   48681
   48693       1   48690   48696   48705       1   48687   48696   48705       1
   48681   48690   48702       1   48678   48672   48684       1   48678   48687
   48699       1   48672   48663   48675       1   48669   48681   48693       1
   48663   48672   48684       1   48660   48648   48666       1   48648   48627
   48651       1   48645   48663   48675       1   48639   48621   48642       1
   48630   48612   48633       1   48630   48618   48636       1   48627   48648
   48666       1   48624   48639   48657       1   48621   48639   48657       1
   48618   48630   48654       1   48612   48603   48615       1   48612   48630
   48654       1   48609   48627   48651       1   48606   48618   48636       1
   48606   48621   48642       1   48603   48612   48633       1   48600   48603
   48615       1   48804   48795   48807       1   48804   48798   48810       1
   48798   48789   48801       1   48798   48804   48813       1   48795   48804
   48813       1   48789   48798   48810       1   48786   48780   48792       1
   48786   48795   48807       1   48780   48771   48783       1   48777   48789
   48801       1   48771   48780   48792       1   48768   48756   48774       1
   48756   48735   48759       1   48753   48771   48783       1   48747   48729
   48750       1   48738   48720   48741       1   48738   48726   48744       1
   48735   48756   48774       1   48732   48747   48765       1   48729   48747
   48765       1   48726   48738   48762       1   48720   48711   48723       1
   48720   48738   48762       1   48717   48735   48759       1   48714   48726
   48744       1   48714   48729   48750       1   48711   48720   48741       1
   48708   48711   48723       1   48912   48903   48915       1   48912   48906
   48918       1   48906   48897   48909       1   48906   48912   48921       1
   48903   48912   48921       1   48897   48906   48918       1   48894   48888
   48900       1   48894   48903   48915       1   48888   48879   48891       1
   48885   48897   48909       1   48879   48888   48900       1   48876   48864
   48882       1   48864   48843   48867       1   48861   48879   48891       1
   48855   48837   48858       1   48846   48828   48849       1   48846   48834
   48852       1   48843   48864   48882       1   48840   48855   48873       1
   48837   48855   48873       1   48834   48846   48870       1   48828   48819
   48831       1   48828   48846   48870       1   48825   48843   48867       1
   48822   48834   48852       1   48822   48837   48858       1   48819   48828
   48849       1   48816   48819   48831       1   49020   49011   49023       1
   49020   49014   49026       1   49014   49005   49017       1   49014   49020
   49029       1   49011   49020   49029       1   49005   49014   49026       1
   49002   48996   49008       1   49002   49011   49023       1   48996   48987
   48999       1   48993   49005   49017       1   48987   48996   49008       1
   48984   48972   48990       1   48972   48951   48975       1   48969   48987
   48999       1   48963   48945   48966       1   48954   48936   48957       1
   48954   48942   48960       1   48951   48972   48990       1   48948   48963
   48981       1   48945   48963   48981       1   48942   48954   48978       1
   48936   48927   48939       1   48936   48954   48978       1   48933   48951
   48975       1   48930   48942   48960       1   48930   48945   48966       1
   48927   48936   48957       1   48924   48927   48939       1   49128   49119
   49131       1   49128   49122   49134       1   49122   49113   49125       1
   49122   49128   49137       1   49119   49128   49137       1   49113   49122
   49134       1   49110   49104   49116       1   49110   49119   49131       1
   49104   49095   49107       1   49101   49113   49125       1   49095   49104
   49116       1   49092   49080   49098       1   49080   49059   49083       1
   49077   49095   49107       1   49071   49053   49074       1   49062   49044
   49065       1   49062   49050   49068       1   49059   49080   49098       1
   49056   49071   49089       1   49053   49071   49089       1   49050   49062
   49086       1   49044   49035   49047       1   49044   49062   49086       1
   49041   49059   49083       1   49038   49050   49068       1   49038   49053
   49074       1   49035   49044   49065       1   49032   49035   49047       1
   49236   49227   49239       1   49236   49230   49242       1   49230   49221
   49233       1   49230   49236   49245       1   49227   49236   49245       1
   49221   49230   49242       1   49218   49212   49224       1   49218   49227
   49239       1   49212   49203   49215       1   49209   49221   49233       1
   49203   49212   49224       1   49200   49188   49206       1   49188   49167
   49191       1   49185   49203   49215       1   49179   49161   49182       1
   49170   49152   49173       1   49170   49158   49176       1   49167   49188
   49206       1   49164   49179   49197       1   49161   49179   49197       1
   49158   49170   49194       1   49152   49143   49155       1   49152   49170
   49194       1   49149   49167   49191       1   49146   49158   49176       1
   49146   49161   49182       1   49143   49152   49173       1   49140   49143
   49155       1   49344   49335   49347       1   49344   49338   49350       1
   49338   49329   49341       1   49338   49344   49353       1   49335   49344
   49353       1   49329   49338   49350       1   49326   49320   49332       1
   49326   49335   49347       1   49320   49311   49323       1   49317   49329
   49341       1   49311   49320   49332       1   49308   49296   49314       1
   49296   49275   49299       1   49293   49311   49323       1   49287   49269
   49290       1   49278   49260   49281       1   49278   49266   49284       1
   49275   49296   49314       1   49272   49287   49305       1   49269   49287
   49305       1   49266   49278   49302       1   49260   49251   49263       1
   49260   49278   49302       1   49257   49275   49299       1   49254   49266
   49284       1   49254   49269   49290       1   49251   49260   49281       1
   49248   49251   49263       1   49452   49443   49455       1   49452   49446
   49458       1   49446   49437   49449       1   49446   49452   49461       1
   49443   49452   49461       1   49437   49446   49458       1   49434   49428
   49440       1   49434   49443   49455       1   49428   49419   49431       1
   49425   49437   49449       1   49419   49428   49440       1   49416   49404
   49422       1   49404   49383   49407       1   49401   49419   49431       1
   49395   49377   49398       1   49386   49368   49389       1   49386   49374
   49392       1   49383   49404   49422       1   49380   49395   49413       1
   49377   49395   49413       1   49374   49386   49410       1   49368   49359
   49371       1   49368   49386   49410       1   49365   49383   49407       1
   49362   49374   49392       1   49362   49377   49398       1   49359   49368
   49389       1   49356   49359   49371       1   49560   49551   49563       1
   49560   49554   49566       1   49554   49545   49557       1   49554   49560
   49569       1   49551   49560   49569       1   49545   49554   49566       1
   49542   49536   49548       1   49542   49551   49563       1   49536   49527
   49539       1   49533   49545   49557       1   49527   49536   49548       1
   49524   49512   49530       1   49512   49491   49515       1   49509   49527
   49539       1   49503   49485   49506       1   49494   49476   49497       1
   49494   49482   49500       1   49491   49512   49530       1   49488   49503
   49521       1   49485   49503   49521       1   49482   49494   49518       1
   49476   49467   49479       1   49476   49494   49518       1   49473   49491
   49515       1   49470   49482   49500       1   49470   49485   49506       1
   49467   49476   49497       1   49464   49467   49479       1   49668   49659
   49671       1   49668   49662   49674       1   49662   49653   49665       1
   49662   49668   49677       1   49659   49668   49677       1   49653   49662
   49674       1   49650   49644   49656       1   49650   49659   49671       1
   49644   49635   49647       1   49641   49653   49665       1   49635   49644
   49656       1   49632   49620   49638       1   49620   49599   49623       1
   49617   49635   49647       1   49611   49593   49614       1   49602   49584
   49605       1   49602   49590   49608       1   49599   49620   49638       1
   49596   49611   49629       1   49593   49611   49629       1   49590   49602
   49626       1   49584   49575   49587       1   49584   49602   49626       1
   49581   49599   49623       1   49578   49590   49608       1   49578   49593
   49614       1   49575   49584   49605       1   49572   49575   49587       1
   49776   49767   49779       1   49776   49770   49782       1   49770   49761
   49773       1   49770   49776   49785       1   49767   49776   49785       1
   49761   49770   49782       1   49758   49752   49764       1   49758   49767
   49779       1   49752   49743   49755       1   49749   49761   49773       1
   49743   49752   49764       1   49740   49728   49746       1   49728   49707
   49731       1   49725   49743   49755       1   49719   49701   49722       1
   49710   49692   49713       1   49710   49698   49716       1   49707   49728
   49746       1   49704   49719   49737       1   49701   49719   49737       1
   49698   49710   49734       1   49692   49683   49695       1   49692   49710
   49734       1   49689   49707   49731       1   49686   49698   49716       1
   49686   49701   49722       1   49683   49692   49713       1   49680   49683
   49695       1   49884   49875   49887       1   49884   49878   49890       1
   49878   49869   49881       1   49878   49884   49893       1   49875   49884
   49893       1   49869   49878   49890       1   49866   49860   49872       1
   49866   49875   49887       1   49860   49851   49863       1   49857   49869
   49881       1   49851   49860   49872       1   49848   49836   49854       1
   49836   49815   49839       1   49833   49851   49863       1   49827   49809
   49830       1   49818   49800   49821       1   49818   49806   49824       1
   49815   49836   49854       1   49812   49827   49845       1   49809   49827
   49845       1   49806   49818   49842       1   49800   49791   49803       1
   49800   49818   49842       1   49797   49815   49839       1   49794   49806
   49824       1   49794   49809   49830       1   49791   49800   49821       1
   49788   49791   49803       1   49992   49983   49995       1   49992   49986
   49998       1   49986   49977   49989       1   49986   49992   50001       1
   49983   49992   50001       1   49977   49986   49998       1   49974   49968
   49980       1   49974   49983   49995       1   49968   49959   49971       1
   49965   49977   49989       1   49959   49968   49980       1   49956   49944
   49962       1   49944   49923   49947       1   49941   49959   49971       1
   49935   49917   49938       1   49926   49908   49929       1   49926   49914
   49932       1   49923   49944   49962       1   49920   49935   49953       1
   49917   49935   49953       1   49914   49926   49950       1   49908   49899
   49911       1   49908   49926   49950       1   49905   49923   49947       1
   49902   49914   49932       1   49902   49917   49938       1   49899   49908
   49929       1   49896   49899   49911       1   50100   50091   50103       1
   50100   50094   50106       1   50094   50085   50097       1   50094   50100
   50109       1   50091   50100   50109       1   50085   50094   50106       1
   50082   50076   50088       1   50082   50091   50103       1   50076   50067
   50079       1   50073   50085   50097       1   50067   50076   50088       1
   50064   50052   50070       1   50052   50031   50055       1   50049   50067
   50079       1   50043   50025   50046       1   50034   50016   50037       1
   50034   50022   50040       1   50031   50052   50070       1   50028   50043
   50061       1   50025   50043   50061       1   50022   50034   50058       1
   50016   50007   50019       1   50016   50034   50058       1   50013   50031
   50055       1   50010   50022   50040       1   50010   50025   50046       1
   50007   50016   50037       1   50004   50007   50019       1   50208   50199
   50211       1   50208   50202   50214       1   50202   50193   50205       1
   50202   50208   50217       1   50199   50208   50217       1   50193   50202
   50214       1   50190   50184   50196       1   50190   50199   50211       1
   50184   50175   50187       1   50181   50193   50205       1   50175   50184
   50196       1   50172   50160   50178       1   50160   50139   50163       1
   50157   50175   50187       1   50151   50133   50154       1   50142   50124
   50145       1   50142   50130   50148       1   50139   50160   50178       1
   50136   50151   50169       1   50133   50151   50169       1   50130   50142
   50166       1   50124   50115   50127       1   50124   50142   50166       1
   50121   50139   50163       1   50118   50130   50148       1   50118   50133
   50154       1   50115   50124   50145       1   50112   50115   50127       1
   50316   50307   50319       1   50316   50310   50322       1   50310   50301
   50313       1   50310   50316   50325       1   50307   50316   50325       1
   50301   50310   50322       1   50298   50292   50304       1   50298   50307
   50319       1   50292   50283   50295       1   50289   50301   50313       1
   50283   50292   50304       1   50280   50268   50286       1   50268   50247
   50271       1   50265   50283   50295       1   50259   50241   50262       1
   50250   50232   50253       1   50250   50238   50256       1   50247   50268
   50286       1   50244   50259   50277       1   50241   50259   50277       1
   50238   50250   50274       1   50232   50223   50235       1   50232   50250
   50274       1   50229   50247   50271       1   50226   50238   50256       1
   50226   50241   50262       1   50223   50232   50253       1   50220   50223
   50235       1   50424   50415   50427       1   50424   50418   50430       1
   50418   50409   50421       1   50418   50424   50433       1   50415   50424
   50433       1   50409   50418   50430       1   50406   50400   50412       1
   50406   50415   50427       1   50400   50391   50403       1   50397   50409
   50421       1   50391   50400   50412       1   50388   50376   50394       1
   50376   50355   50379       1   50373   50391   50403       1   50367   50349
   50370       1   50358   50340   50361       1   50358   50346   50364       1
   50355   50376   50394       1   50352   50367   50385       1   50349   50367
   50385       1   50346   50358   50382       1   50340   50331   50343       1
   50340   50358   50382       1   50337   50355   50379       1   50334   50346
   50364       1   50334   50349   50370       1   50331   50340   50361       1
   50328   50331   50343       1   50532   50523   50535       1   50532   50526
   50538       1   50526   50517   50529       1   50526   50532   50541       1
   50523   50532   50541       1   50517   50526   50538       1   50514   50508
   50520       1   50514   50523   50535       1   50508   50499   50511       1
   50505   50517   50529       1   50499   50508   50520       1   50496   50484
   50502       1   50484   50463   50487       1   50481   50499   50511       1
   50475   50457   50478       1   50466   50448   50469       1   50466   50454
   50472       1   50463   50484   50502       1   50460   50475   50493       1
   50457   50475   50493       1   50454   50466   50490       1   50448   50439
   50451       1   50448   50466   50490       1   50445   50463   50487       1
   50442   50454   50472       1   50442   50457   50478       1   50439   50448
   50469       1   50436   50439   50451       1   50640   50631   50643       1
   50640   50634   50646       1   50634   50625   50637       1   50634   50640
   50649       1   50631   50640   50649       1   50625   50634   50646       1
   50622   50616   50628       1   50622   50631   50643       1   50616   50607
   50619       1   50613   50625   50637       1   50607   50616   50628       1
   50604   50592   50610       1   50592   50571   50595       1   50589   50607
   50619       1   50583   50565   50586       1   50574   50556   50577       1
   50574   50562   50580       1   50571   50592   50610       1   50568   50583
   50601       1   50565   50583   50601       1   50562   50574   50598       1
   50556   50547   50559       1   50556   50574   50598       1   50553   50571
   50595       1   50550   50562   50580       1   50550   50565   50586       1
   50547   50556   50577       1   50544   50547   50559       1   50748   50739
   50751       1   50748   50742   50754       1   50742   50733   50745       1
   50742   50748   50757       1   50739   50748   50757       1   50733   50742
   50754       1   50730   50724   50736       1   50730   50739   50751       1
   50724   50715   50727       1   50721   50733   50745       1   50715   50724
   50736       1   50712   50700   50718       1   50700   50679   50703       1
   50697   50715   50727       1   50691   50673   50694       1   50682   50664
   50685       1   50682   50670   50688       1   50679   50700   50718       1
   50676   50691   50709       1   50673   50691   50709       1   50670   50682
   50706       1   50664   50655   50667       1   50664   50682   50706       1
   50661   50679   50703       1   50658   50670   50688       1   50658   50673
   50694       1   50655   50664   50685       1   50652   50655   50667       1
   50856   50847   50859       1   50856   50850   50862       1   50850   50841
   50853       1   50850   50856   50865       1   50847   50856   50865       1
   50841   50850   50862       1   50838   50832   50844       1   50838   50847
   50859       1   50832   50823   50835       1   50829   50841   50853       1
   50823   50832   50844       1   50820   50808   50826       1   50808   50787
   50811       1   50805   50823   50835       1   50799   50781   50802       1
   50790   50772   50793       1   50790   50778   50796       1   50787   50808
   50826       1   50784   50799   50817       1   50781   50799   50817       1
   50778   50790   50814       1   50772   50763   50775       1   50772   50790
   50814       1   50769   50787   50811       1   50766   50778   50796       1
   50766   50781   50802       1   50763   50772   50793       1   50760   50763
   50775       1   50964   50955   50967       1   50964   50958   50970       1
   50958   50949   50961       1   50958   50964   50973       1   50955   50964
   50973       1   50949   50958   50970       1   50946   50940   50952       1
   50946   50955   50967       1   50940   50931   50943       1   50937   50949
   50961       1   50931   50940   50952       1   50928   50916   50934       1
   50916   50895   50919       1   50913   50931   50943       1   50907   50889
   50910       1   50898   50880   50901       1   50898   50886   50904       1
   50895   50916   50934       1   50892   50907   50925       1   50889   50907
   50925       1   50886   50898   50922       1   50880   50871   50883       1
   50880   50898   50922       1   50877   50895   50919       1   50874   50886
   50904       1   50874   50889   50910       1   50871   50880   50901       1
   50868   50871   50883       1   51072   51063   51075       1   51072   51066
   51078       1   51066   51057   51069       1   51066   51072   51081       1
   51063   51072   51081       1   51057   51066   51078       1   51054   51048
   51060       1   51054   51063   51075       1   51048   51039   51051       1
   51045   51057   51069       1   51039   51048   51060       1   51036   51024
   51042       1   51024   51003   51027       1   51021   51039   51051       1
   51015   50997   51018       1   51006   50988   51009       1   51006   50994
   51012       1   51003   51024   51042       1   51000   51015   51033       1
   50997   51015   51033       1   50994   51006   51030       1   50988   50979
   50991       1   50988   51006   51030       1   50985   51003   51027       1
   50982   50994   51012       1   50982   50997   51018       1   50979   50988
   51009       1   50976   50979   50991       1   51180   51171   51183       1
   51180   51174   51186       1   51174   51165   51177       1   51174   51180
   51189       1   51171   51180   51189       1   51165   51174   51186       1
   51162   51156   51168       1   51162   51171   51183       1   51156   51147
   51159       1   51153   51165   51177       1   51147   51156   51168       1
   51144   51132   51150       1   51132   51111   51135       1   51129   51147
   51159       1   51123   51105   51126       1   51114   51096   51117       1
   51114   51102   51120       1   51111   51132   51150       1   51108   51123
   51141       1   51105   51123   51141       1   51102   51114   51138       1
   51096   51087   51099       1   51096   51114   51138       1   51093   51111
   51135       1   51090   51102   51120       1   51090   51105   51126       1
   51087   51096   51117       1   51084   51087   51099       1   51288   51279
   51291       1   51288   51282   51294       1   51282   51273   51285       1
   51282   51288   51297       1   51279   51288   51297       1   51273   51282
   51294       1   51270   51264   51276       1   51270   51279   51291       1
   51264   51255   51267       1   51261   51273   51285       1   51255   51264
   51276       1   51252   51240   51258       1   51240   51219   51243       1
   51237   51255   51267       1   51231   51213   51234       1   51222   51204
   51225       1   51222   51210   51228       1   51219   51240   51258       1
   51216   51231   51249       1   51213   51231   51249       1   51210   51222
   51246       1   51204   51195   51207       1   51204   51222   51246       1
   51201   51219   51243       1   51198   51210   51228       1   51198   51213
   51234       1   51195   51204   51225       1   51192   51195   51207       1
   51396   51387   51399       1   51396   51390   51402       1   51390   51381
   51393       1   51390   51396   51405       1   51387   51396   51405       1
   51381   51390   51402       1   51378   51372   51384       1   51378   51387
   51399       1   51372   51363   51375       1   51369   51381   51393       1
   51363   51372   51384       1   51360   51348   51366       1   51348   51327
   51351       1   51345   51363   51375       1   51339   51321   51342       1
   51330   51312   51333       1   51330   51318   51336       1   51327   51348
   51366       1   51324   51339   51357       1   51321   51339   51357       1
   51318   51330   51354       1   51312   51303   51315       1   51312   51330
   51354       1   51309   51327   51351       1   51306   51318   51336       1
   51306   51321   51342       1   51303   51312   51333       1   51300   51303
   51315       1   51504   51495   51507       1   51504   51498   51510       1
   51498   51489   51501       1   51498   51504   51513       1   51495   51504
   51513       1   51489   51498   51510       1   51486   51480   51492       1
   51486   51495   51507       1   51480   51471   51483       1   51477   51489
   51501       1   51471   51480   51492       1   51468   51456   51474       1
   51456   51435   51459       1   51453   51471   51483       1   51447   51429
   51450       1   51438   51420   51441       1   51438   51426   51444       1
   51435   51456   51474       1   51432   51447   51465       1   51429   51447
   51465       1   51426   51438   51462       1   51420   51411   51423       1
   51420   51438   51462       1   51417   51435   51459       1   51414   51426
   51444       1   51414   51429   51450       1   51411   51420   51441       1
   51408   51411   51423       1   51612   51603   51615       1   51612   51606
   51618       1   51606   51597   51609       1   51606   51612   51621       1
   51603   51612   51621       1   51597   51606   51618       1   51594   51588
   51600       1   51594   51603   51615       1   51588   51579   51591       1
   51585   51597   51609       1   51579   51588   51600       1   51576   51564
   51582       1   51564   51543   51567       1   51561   51579   51591       1
   51555   51537   51558       1   51546   51528   51549       1   51546   51534
   51552       1   51543   51564   51582       1   51540   51555   51573       1
   51537   51555   51573       1   51534   51546   51570       1   51528   51519
   51531       1   51528   51546   51570       1   51525   51543   51567       1
   51522   51534   51552       1   51522   51537   51558       1   51519   51528
   51549       1   51516   51519   51531       1   51720   51711   51723       1
   51720   51714   51726       1   51714   51705   51717       1   51714   51720
   51729       1   51711   51720   51729       1   51705   51714   51726       1
   51702   51696   51708       1   51702   51711   51723       1   51696   51687
   51699       1   51693   51705   51717       1   51687   51696   51708       1
   51684   51672   51690       1   51672   51651   51675       1   51669   51687
   51699       1   51663   51645   51666       1   51654   51636   51657       1
   51654   51642   51660       1   51651   51672   51690       1   51648   51663
   51681       1   51645   51663   51681       1   51642   51654   51678       1
   51636   51627   51639       1   51636   51654   51678       1   51633   51651
   51675       1   51630   51642   51660       1   51630   51645   51666       1
   51627   51636   51657       1   51624   51627   51639       1   51828   51819
   51831       1   51828   51822   51834       1   51822   51813   51825       1
   51822   51828   51837       1   51819   51828   51837       1   51813   51822
   51834       1   51810   51804   51816       1   51810   51819   51831       1
   51804   51795   51807       1   51801   51813   51825       1   51795   51804
   51816       1   51792   51780   51798       1   51780   51759   51783       1
   51777   51795   51807       1   51771   51753   51774       1   51762   51744
   51765       1   51762   51750   51768       1   51759   51780   51798       1
   51756   51771   51789       1   51753   51771   51789       1   51750   51762
   51786       1   51744   51735   51747       1   51744   51762   51786       1
   51741   51759   51783       1   51738   51750   51768       1   51738   51753
   51774       1   51735   51744   51765       1   51732   51735   51747       1
   51936   51927   51939       1   51936   51930   51942       1   51930   51921
   51933       1   51930   51936   51945       1   51927   51936   51945       1
   51921   51930   51942       1   51918   51912   51924       1   51918   51927
   51939       1   51912   51903   51915       1   51909   51921   51933       1
   51903   51912   51924       1   51900   51888   51906       1   51888   51867
   51891       1   51885   51903   51915       1   51879   51861   51882       1
   51870   51852   51873       1   51870   51858   51876       1   51867   51888
   51906       1   51864   51879   51897       1   51861   51879   51897       1
   51858   51870   51894       1   51852   51843   51855       1   51852   51870
   51894       1   51849   51867   51891       1   51846   51858   51876       1
   51846   51861   51882       1   51843   51852   51873       1   51840   51843
   51855       1   52044   52035   52047       1   52044   52038   52050       1
   52038   52029   52041       1   52038   52044   52053       1   52035   52044
   52053       1   52029   52038   52050       1   52026   52020   52032       1
   52026   52035   52047       1   52020   52011   52023       1   52017   52029
   52041       1   52011   52020   52032       1   52008   51996   52014       1
   51996   51975   51999       1   51993   52011   52023       1   51987   51969
   51990       1   51978   51960   51981       1   51978   51966   51984       1
   51975   51996   52014       1   51972   51987   52005       1   51969   51987
   52005       1   51966   51978   52002       1   51960   51951   51963       1
   51960   51978   52002       1   51957   51975   51999       1   51954   51966
   51984       1   51954   51969   51990       1   51951   51960   51981       1
   51948   51951   51963       1   52152   52143   52155       1   52152   52146
   52158       1   52146   52137   52149       1   52146   52152   52161       1
   52143   52152   52161       1   52137   52146   52158       1   52134   52128
   52140       1   52134   52143   52155       1   52128   52119   52131       1
   52125   52137   52149       1   52119   52128   52140       1   52116   52104
   52122       1   52104   52083   52107       1   52101   52119   52131       1
   52095   52077   52098       1   52086   52068   52089       1   52086   52074
   52092       1   52083   52104   52122       1   52080   52095   52113       1
   52077   52095   52113       1   52074   52086   52110       1   52068   52059
   52071       1   52068   52086   52110       1   52065   52083   52107       1
   52062   52074   52092       1   52062   52077   52098       1   52059   52068
   52089       1   52056   52059   52071       1   52260   52251   52263       1
   52260   52254   52266       1   52254   52245   52257       1   52254   52260
   52269       1   52251   52260   52269       1   52245   52254   52266       1
   52242   52236   52248       1   52242   52251   52263       1   52236   52227
   52239       1   52233   52245   52257       1   52227   52236   52248       1
   52224   52212   52230       1   52212   52191   52215       1   52209   52227
   52239       1   52203   52185   52206       1   52194   52176   52197       1
   52194   52182   52200       1   52191   52212   52230       1   52188   52203
   52221       1   52185   52203   52221       1   52182   52194   52218       1
   52176   52167   52179       1   52176   52194   52218       1   52173   52191
   52215       1   52170   52182   52200       1   52170   52185   52206       1
   52167   52176   52197       1   52164   52167   52179       1   52368   52359
   52371       1   52368   52362   52374       1   52362   52353   52365       1
   52362   52368   52377       1   52359   52368   52377       1   52353   52362
   52374       1   52350   52344   52356       1   52350   52359   52371       1
   52344   52335   52347       1   52341   52353   52365       1   52335   52344
   52356       1   52332   52320   52338       1   52320   52299   52323       1
   52317   52335   52347       1   52311   52293   52314       1   52302   52284
   52305       1   52302   52290   52308       1   52299   52320   52338       1
   52296   52311   52329       1   52293   52311   52329       1   52290   52302
   52326       1   52284   52275   52287       1   52284   52302   52326       1
   52281   52299   52323       1   52278   52290   52308       1   52278   52293
   52314       1   52275   52284   52305       1   52272   52275   52287       1
   52476   52467   52479       1   52476   52470   52482       1   52470   52461
   52473       1   52470   52476   52485       1   52467   52476   52485       1
   52461   52470   52482       1   52458   52452   52464       1   52458   52467
   52479       1   52452   52443   52455       1   52449   52461   52473       1
   52443   52452   52464       1   52440   52428   52446       1   52428   52407
   52431       1   52425   52443   52455       1   52419   52401   52422       1
   52410   52392   52413       1   52410   52398   52416       1   52407   52428
   52446       1   52404   52419   52437       1   52401   52419   52437       1
   52398   52410   52434       1   52392   52383   52395       1   52392   52410
   52434       1   52389   52407   52431       1   52386   52398   52416       1
   52386   52401   52422       1   52383   52392   52413       1   52380   52383
   52395       1   52584   52575   52587       1   52584   52578   52590       1
   52578   52569   52581       1   52578   52584   52593       1   52575   52584
   52593       1   52569   52578   52590       1   52566   52560   52572       1
   52566   52575   52587       1   52560   52551   52563       1   52557   52569
   52581       1   52551   52560   52572       1   52548   52536   52554       1
   52536   52515   52539       1   52533   52551   52563       1   52527   52509
   52530       1   52518   52500   52521       1   52518   52506   52524       1
   52515   52536   52554       1   52512   52527   52545       1   52509   52527
   52545       1   52506   52518   52542       1   52500   52491   52503       1
   52500   52518   52542       1   52497   52515   52539       1   52494   52506
   52524       1   52494   52509   52530       1   52491   52500   52521       1
   52488   52491   52503       1   52692   52683   52695       1   52692   52686
   52698       1   52686   52677   52689       1   52686   52692   52701       1
   52683   52692   52701       1   52677   52686   52698       1   52674   52668
   52680       1   52674   52683   52695       1   52668   52659   52671       1
   52665   52677   52689       1   52659   52668   52680       1   52656   52644
   52662       1   52644   52623   52647       1   52641   52659   52671       1
   52635   52617   52638       1   52626   52608   52629       1   52626   52614
   52632       1   52623   52644   52662       1   52620   52635   52653       1
   52617   52635   52653       1   52614   52626   52650       1   52608   52599
   52611       1   52608   52626   52650       1   52605   52623   52647       1
   52602   52614   52632       1   52602   52617   52638       1   52599   52608
   52629       1   52596   52599   52611       1   52800   52791   52803       1
   52800   52794   52806       1   52794   52785   52797       1   52794   52800
   52809       1   52791   52800   52809       1   52785   52794   52806       1
   52782   52776   52788       1   52782   52791   52803       1   52776   52767
   52779       1   52773   52785   52797       1   52767   52776   52788       1
   52764   52752   52770       1   52752   52731   52755       1   52749   52767
   52779       1   52743   52725   52746       1   52734   52716   52737       1
   52734   52722   52740       1   52731   52752   52770       1   52728   52743
   52761       1   52725   52743   52761       1   52722   52734   52758       1
   52716   52707   52719       1   52716   52734   52758       1   52713   52731
   52755       1   52710   52722   52740       1   52710   52725   52746       1
   52707   52716   52737       1   52704   52707   52719       1   52908   52899
   52911       1   52908   52902   52914       1   52902   52893   52905       1
   52902   52908   52917       1   52899   52908   52917       1   52893   52902
   52914       1   52890   52884   52896       1   52890   52899   52911       1
   52884   52875   52887       1   52881   52893   52905       1   52875   52884
   52896       1   52872   52860   52878       1   52860   52839   52863       1
   52857   52875   52887       1   52851   52833   52854       1   52842   52824
   52845       1   52842   52830   52848       1   52839   52860   52878       1
   52836   52851   52869       1   52833   52851   52869       1   52830   52842
   52866       1   52824   52815   52827       1   52824   52842   52866       1
   52821   52839   52863       1   52818   52830   52848       1   52818   52833
   52854       1   52815   52824   52845       1   52812   52815   52827       1
%FLAG ANGLES_WITHOUT_HYDROGEN
%FORMAT(10I8)
      87      96      90       2      81      90      96       2      78      69
      81       2      78      87      96       2      72      78      87       2
      69      78      72       2      69      78      87       2      69      81
      90       2      63      72      78       2      60      45      63       2
      60      69      78       2      60      69      81       2      48      60
      69       2      45      60      48       2      45      60      69       2
      45      63      72       2      39      24      45       2      27      48
      60       2      24       9      27       2      24      45      60       2
      24      45      63       2      21      39      24       2      18       6
      21       2      12      30      18       2       9      24      39       2
       9      24      45       2       9      27      48       2       6       0
       9       2       6      18      30       2       6      21      39       2
       3       0       6       2       3       0       9       2       3      12
      30       2       0       3      12       2       0       6      18       2
       0       6      21       2       0       9      24       2       0       9
      27       2     195     204     198       2     189     198     204       2
     186     177     189       2     186     195     204       2     180     186
     195       2     177     186     180       2     177     186     195       2
     177     189     198       2     171     180     186       2     168     153
     171       2     168     177     186       2     168     177     189       2
     156     168     177       2     153     168     156       2     153     168
     177       2     153     171     180       2     147     132     153       2
     135     156     168       2     132     117     135       2     132     153
     168       2     132     153     171       2     129     147     132       2
     126     114     129       2     120     138     126       2     117     132
     147       2     117     132     153       2     117     135     156       2
     114     108     117       2     114     126     138       2     114     129
     147       2     111     108     114       2     111     108     117       2
     111     120     138       2     108     111     120       2     108     114
     126       2     108     114     129       2     108     117     132       2
     108     117     135       2     303     312     306       2     297     306
     312       2     294     285     297       2     294     303     312       2
     288     294     303       2     285     294     288       2     285     294
     303       2     285     297     306       2     279     288     294       2
     276     261     279       2     276     285     294       2     276     285
     297       2     264     276     285       2     261     276     264       2
     261     276     285       2     261     279     288       2     255     240
     261       2     243     264     276       2     240     225     243       2
     240     261     276       2     240     261     279       2     237     255
     240       2     234     222     237       2     228     246     234       2
     225     240     255       2     225     240     261       2     225     243
     264       2     222     216     225       2     222     234     246       2
     222     237     255       2     219     216     222       2     219     216
     225       2     219     228     246       2     216     219     228       2
     216     222     234       2     216     222     237       2     216     225
     240       2     216     225     243       2     411     420     414       2
     405     414     420       2     402     393     405       2     402     411
     420       2     396     402     411       2     393     402     396       2
     393     402     411       2     393     405     414       2     387     396
     402       2     384     369     387       2     384     393     402       2
     384     393     405       2     372     384     393       2     369     384
     372       2     369     384     393       2     369     387     396       2
     363     348     369       2     351     372     384       2     348     333
     351       2     348     369     384       2     348     369     387       2
     345     363     348       2     342     330     345       2     336     354
     342       2     333     348     363       2     333     348     369       2
     333     351     372       2     330     324     333       2     330     342
     354       2     330     345     363       2     327     324     330       2
     327     324     333       2     327     336     354       2     324     327
     336       2     324     330     342       2     324     330     345       2
     324     333     348       2     324     333     351       2     519     528
     522       2     513     522     528       2     510     501     513       2
     510     519     528       2     504     510     519       2     501     510
     504       2     501     510     519       2     501     513     522       2
     495     504     510       2     492     477     495       2     492     501
     510       2     492     501     513       2     480     492     501       2
     477     492     480       2     477     492     501       2     477     495
     504       2     471     456     477       2     459     480     492       2
     456     441     459       2     456     477     492       2     456     477
     495       2     453     471     456       2     450     438     453       2
     444     462     450       2     441     456     471       2     441     456
     477       2     441     459     480       2     438     432     441       2
     438     450     462       2     438     453     471       2     435     432
     438       2     435     432     441       2     435     444     462       2
     432     435     444       2     432     438     450       2     432     438
     453       2     432     441     456       2     432     441     459       2
     627     636     630       2     621     630     636       2     618     609
     621       2     618     627     636       2     612     618     627       2
     609     618     612       2     609     618     627       2     609     621
     630       2     603     612     618       2     600     585     603       2
     600     609     618       2     600     609     621       2     588     600
     609       2     585     600     588       2     585     600     609       2
     585     603     612       2     579     564     585       2     567     588
     600       2     564     549     567       2     564     585     600       2
     564     585     603       2     561     579     564       2     558     546
     561       2     552     570     558       2     549     564     579       2
     549     564     585       2     549     567     588       2     546     540
     549       2     546     558     570       2     546     561     579       2
     543     540     546       2     543     540     549       2     543     552
     570       2     540     543     552       2     540     546     558       2
     540     546     561       2     540     549     564       2     540     549
     567       2     735     744     738       2     729     738     744       2
     726     717     729       2     726     735     744       2     720     726
     735       2     717     726     720       2     717     726     735       2
     717     729     738       2     711     720     726       2     708     693
     711       2     708     717     726       2     708     717     729       2
     696     708     717       2     693     708     696       2     693     708
     717       2     693     711     720       2     687     672     693       2
     675     696     708       2     672     657     675       2     672     693
     708       2     672     693     711       2     669     687     672       2
     666     654     669       2     660     678     666       2     657     672
     687       2     657     672     693       2     657     675     696       2
     654     648     657       2     654     666     678       2     654     669
     687       2     651     648     654       2     651     648     657       2
     651     660     678       2     648     651     660       2     648     654
     666       2     648     654     669       2     648     657     672       2
     648     657     675       2     843     852     846       2     837     846
     852       2     834     825     837       2     834     843     852       2
     828     834     843       2     825     834     828       2     825     834
     843       2     825     837     846       2     819     828     834       2
     816     801     819       2     816     825     834       2     816     825
     837       2     804     816     825       2     801     816     804       2
     801     816     825       2     801     819     828       2     795     780
     801       2     783     804     816       2     780     765     783       2
     780     801     816       2     780     801     819       2     777     795
     780       2     774     762     777       2     768     786     774       2
     765     780     795       2     765     780     801       2     765     783
     804       2     762     756     765       2     762     774     786       2
     762     777     795       2     759     756     762       2     759     756
     765       2     759     768     786       2     756     759     768       2
     756     762     774       2     756     762     777       2     756     765
     780       2     756     765     783       2     951     960     954       2
     945     954     960       2     942     933     945       2     942     951
     960       2     936     942     951       2     933     942     936       2
     933     942     951       2     933     945     954       2     927     936
     942       2     924     909     927       2     924     933     942       2
     924     933     945       2     912     924     933       2     909     924
     912       2     909     924     933       2     909     927     936       2
     903     888     909       2     891     912     924       2     888     873
     891       2     888     909     924       2     888     909     927       2
     885     903     888       2     882     870     885       2     876     894
     882       2     873     888     903       2     873     888     909       2
     873     891     912       2     870     864     873       2     870     882
     894       2     870     885     903       2     867     864     870       2
     867     864     873       2     867     876     894       2     864     867
     876       2     864     870     882       2     864     870     885       2
     864     873     888       2     864     873     891       2    1059    1068
    1062       2    1053    1062    1068       2    1050    1041    1053       2
    1050    1059    1068       2    1044    1050    1059       2    1041    1050
    1044       2    1041    1050    1059       2    1041    1053    1062       2
    1035    1044    1050       2    1032    1017    1035       2    1032    1041
    1050       2    1032    1041    1053       2    1020    1032    1041       2
    1017    1032    1020       2    1017    1032    1041       2    1017    1035
    1044       2    1011     996    1017       2     999    1020    1032       2
     996     981     999       2     996    1017    1032       2     996    1017
    1035       2     993    1011     996       2     990     978     993       2
     984    1002     990       2     981     996    1011       2     981     996
    1017       2     981     999    1020       2     978     972     981       2
     978     990    1002       2     978     993    1011       2     975     972
     978       2     975     972     981       2     975     984    1002       2
     972     975     984       2     972     978     990       2     972     978
     993       2     972     981     996       2     972     981     999       2
    1167    1176    1170       2    1161    1170    1176       2    1158    1149
    1161       2    1158    1167    1176       2    1152    1158    1167       2
    1149    1158    1152       2    1149    1158    1167       2    1149    1161
    1170       2    1143    1152    1158       2    1140    1125    1143       2
    1140    1149    1158       2    1140    1149    1161       2    1128    1140
    1149       2    1125    1140    1128       2    1125    1140    1149       2
    1125    1143    1152       2    1119    1104    1125       2    1107    1128
    1140       2    1104    1089    1107       2    1104    1125    1140       2
    1104    1125    1143       2    1101    1119    1104       2    1098    1086
    1101       2    1092    1110    1098       2    1089    1104    1119       2
    1089    1104    1125       2    1089    1107    1128       2    1086    1080
    1089       2    1086    1098    1110       2    1086    1101    1119       2
    1083    1080    1086       2    1083    1080    1089       2    1083    1092
    1110       2    1080    1083    1092       2    1080    1086    1098       2
    1080    1086    1101       2    1080    1089    1104       2    1080    1089
    1107       2    1275    1284    1278       2    1269    1278    1284       2
    1266    1257    1269       2    1266    1275    1284       2    1260    1266
    1275       2    1257    1266    1260       2    1257    1266    1275       2
    1257    1269    1278       2    1251    1260    1266       2    1248    1233
    1251       2    1248    1257    1266       2    1248    1257    1269       2
    1236    1248    1257       2    1233    1248    1236       2    1233    1248
    1257       2    1233    1251    1260       2    1227    1212    1233       2
    1215    1236    1248       2    1212    1197    1215       2    1212    1233
    1248       2    1212    1233    1251       2    1209    1227    1212       2
    1206    1194    1209       2    1200    1218    1206       2    1197    1212
    1227       2    1197    1212    1233       2    1197    1215    1236       2
    1194    1188    1197       2    1194    1206    1218       2    1194    1209
    1227       2    1191    1188    1194       2    1191    1188    1197       2
    1191    1200    1218       2    1188    1191    1200       2    1188    1194
    1206       2    1188    1194    1209       2    1188    1197    1212       2
    1188    1197    1215       2    1383    1392    1386       2    1377    1386
    1392       2    1374    1365    1377       2    1374    1383    1392       2
    1368    1374    1383       2    1365    1374    1368       2    1365    1374
    1383       2    1365    1377    1386       2    1359    1368    1374       2
    1356    1341    1359       2    1356    1365    1374       2    1356    1365
    1377       2    1344    1356    1365       2    1341    1356    1344       2
    1341    1356    1365       2    1341    1359    1368       2    1335    1320
    1341       2    1323    1344    1356       2    1320    1305    1323       2
    1320    1341    1356       2    1320    1341    1359       2    1317    1335
    1320       2    1314    1302    1317       2    1308    1326    1314       2
    1305    1320    1335       2    1305    1320    1341       2    1305    1323
    1344       2    1302    1296    1305       2    1302    1314    1326       2
    1302    1317    1335       2    1299    1296    1302       2    1299    1296
    1305       2    1299    1308    1326       2    1296    1299    1308       2
    1296    1302    1314       2    1296    1302    1317       2    1296    1305
    1320       2    1296    1305    1323       2    1491    1500    1494       2
    1485    1494    1500       2    1482    1473    1485       2    1482    1491
    1500       2    1476    1482    1491       2    1473    1482    1476       2
    1473    1482    1491       2    1473    1485    1494       2    1467    1476
    1482       2    1464    1449    1467       2    1464    1473    1482       2
    1464    1473    1485       2    1452    1464    1473       2    1449    1464
    1452       2    1449    1464    1473       2    1449    1467    1476       2
    1443    1428    1449       2    1431    1452    1464       2    1428    1413
    1431       2    1428    1449    1464       2    1428    1449    1467       2
    1425    1443    1428       2    1422    1410    1425       2    1416    1434
    1422       2    1413    1428    1443       2    1413    1428    1449       2
    1413    1431    1452       2    1410    1404    1413       2    1410    1422
    1434       2    1410    1425    1443       2    1407    1404    1410       2
    1407    1404    1413       2    1407    1416    1434       2    1404    1407
    1416       2    1404    1410    1422       2    1404    1410    1425       2
    1404    1413    1428       2    1404    1413    1431       2    1599    1608
    1602       2    1593    1602    1608       2    1590    1581    1593       2
    1590    1599    1608       2    1584    1590    1599       2    1581    1590
    1584       2    1581    1590    1599       2    1581    1593    1602       2
    1575    1584    1590       2    1572    1557    1575       2    1572    1581
    1590       2    1572    1581    1593       2    1560    1572    1581       2
    1557    1572    1560       2    1557    1572    1581       2    1557    1575
    1584       2    1551    1536    1557       2    1539    1560    1572       2
    1536    1521    1539       2    1536    1557    1572       2    1536    1557
    1575       2    1533    1551    1536       2    1530    1518    1533       2
    1524    1542    1530       2    1521    1536    1551       2    1521    1536
    1557       2    1521    1539    1560       2    1518    1512    1521       2
    1518    1530    1542       2    1518    1533    1551       2    1515    1512
    1518       2    1515    1512    1521       2    1515    1524    1542       2
    1512    1515    1524       2    1512    1518    1530       2    1512    1518
    1533       2    1512    1521    1536       2    1512    1521    1539       2
    1707    1716    1710       2    1701    1710    1716       2    1698    1689
    1701       2    1698    1707    1716       2    1692    1698    1707       2
    1689    1698    1692       2    1689    1698    1707       2    1689    1701
    1710       2    1683    1692    1698       2    1680    1665    1683       2
    1680    1689    1698       2    1680    1689    1701       2    1668    1680
    1689       2    1665    1680    1668       2    1665    1680    1689       2
    1665    1683    1692       2    1659    1644    1665       2    1647    1668
    1680       2    1644    1629    1647       2    1644    1665    1680       2
    1644    1665    1683       2    1641    1659    1644       2    1638    1626
    1641       2    1632    1650    1638       2    1629    1644    1659       2
    1629    1644    1665       2    1629    1647    1668       2    1626    1620
    1629       2    1626    1638    1650       2    1626    1641    1659       2
    1623    1620    1626       2    1623    1620    1629       2    1623    1632
    1650       2    1620    1623    1632       2    1620    1626    1638       2
    1620    1626    1641       2    1620    1629    1644       2    1620    1629
    1647       2    1815    1824    1818       2    1809    1818    1824       2
    1806    1797    1809       2    1806    1815    1824       2    1800    1806
    1815       2    1797    1806    1800       2    1797    1806    1815       2
    1797    1809    1818       2    1791    1800    1806       2    1788    1773
    1791       2    1788    1797    1806       2    1788    1797    1809       2
    1776    1788    1797       2    1773    1788    1776       2    1773    1788
    1797       2    1773    1791    1800       2    1767    1752    1773       2
    1755    1776    1788       2    1752    1737    1755       2    1752    1773
    1788       2    1752    1773    1791       2    1749    1767    1752       2
    1746    1734    1749       2    1740    1758    1746       2    1737    1752
    1767       2    1737    1752    1773       2    1737    1755    1776       2
    1734    1728    1737       2    1734    1746    1758       2    1734    1749
    1767       2    1731    1728    1734       2    1731    1728    1737       2
    1731    1740    1758       2    1728    1731    1740       2    1728    1734
    1746       2    1728    1734    1749       2    1728    1737    1752       2
    1728    1737    1755       2    1923    1932    1926       2    1917    1926
    1932       2    1914    1905    1917       2    1914    1923    1932       2
    1908    1914    1923       2    1905    1914    1908       2    1905    1914
    1923       2    1905    1917    1926       2    1899    1908    1914       2
    1896    1881    1899       2    1896    1905    1914       2    1896    1905
    1917       2    1884    1896    1905       2    1881    1896    1884       2
    1881    1896    1905       2    1881    1899    1908       2    1875    1860
    1881       2    1863    1884    1896       2    1860    1845    1863       2
    1860    1881    1896       2    1860    1881    1899       2    1857    1875
    1860       2    1854    1842    1857       2    1848    1866    1854       2
    1845    1860    1875       2    1845    1860    1881       2    1845    1863
    1884       2    1842    1836    1845       2    1842    1854    1866       2
    1842    1857    1875       2    1839    1836    1842       2    1839    1836
    1845       2    1839    1848    1866       2    1836    1839    1848       2
    1836    1842    1854       2    1836    1842    1857       2    1836    1845
    1860       2    1836    1845    1863       2    2031    2040    2034       2
    2025    2034    2040       2    2022    2013    2025       2    2022    2031
    2040       2    2016    2022    2031       2    2013    2022    2016       2
    2013    2022    2031       2    2013    2025    2034       2    2007    2016
    2022       2    2004    1989    2007       2    2004    2013    2022       2
    2004    2013    2025       2    1992    2004    2013       2    1989    2004
    1992       2    1989    2004    2013       2    1989    2007    2016       2
    1983    1968    1989       2    1971    1992    2004       2    1968    1953
    1971       2    1968    1989    2004       2    1968    1989    2007       2
    1965    1983    1968       2    1962    1950    1965       2    1956    1974
    1962       2    1953    1968    1983       2    1953    1968    1989       2
    1953    1971    1992       2    1950    1944    1953       2    1950    1962
    1974       2    1950    1965    1983       2    1947    1944    1950       2
    1947    1944    1953       2    1947    1956    1974       2    1944    1947
    1956       2    1944    1950    1962       2    1944    1950    1965       2
    1944    1953    1968       2    1944    1953    1971       2    2139    2148
    2142       2    2133    2142    2148       2    2130    2121    2133       2
    2130    2139    2148       2    2124    2130    2139       2    2121    2130
    2124       2    2121    2130    2139       2    2121    2133    2142       2
    2115    2124    2130       2    2112    2097    2115       2    2112    2121
    2130       2    2112    2121    2133       2    2100    2112    2121       2
    2097    2112    2100       2    2097    2112    2121       2    2097    2115
    2124       2    2091    2076    2097       2    2079    2100    2112       2
    2076    2061    2079       2    2076    2097    2112       2    2076    2097
    2115       2    2073    2091    2076       2    2070    2058    2073       2
    2064    2082    2070       2    2061    2076    2091       2    2061    2076
    2097       2    2061    2079    2100       2    2058    2052    2061       2
    2058    2070    2082       2    2058    2073    2091       2    2055    2052
    2058       2    2055    2052    2061       2    2055    2064    2082       2
    2052    2055    2064       2    2052    2058    2070       2    2052    2058
    2073       2    2052    2061    2076       2    2052    2061    2079       2
    2247    2256    2250       2    2241    2250    2256       2    2238    2229
    2241       2    2238    2247    2256       2    2232    2238    2247       2
    2229    2238    2232       2    2229    2238    2247       2    2229    2241
    2250       2    2223    2232    2238       2    2220    2205    2223       2
    2220    2229    2238       2    2220    2229    2241       2    2208    2220
    2229       2    2205    2220    2208       2    2205    2220    2229       2
    2205    2223    2232       2    2199    2184    2205       2    2187    2208
    2220       2    2184    2169    2187       2    2184    2205    2220       2
    2184    2205    2223       2    2181    2199    2184       2    2178    2166
    2181       2    2172    2190    2178       2    2169    2184    2199       2
    2169    2184    2205       2    2169    2187    2208       2    2166    2160
    2169       2    2166    2178    2190       2    2166    2181    2199       2
    2163    2160    2166       2    2163    2160    2169       2    2163    2172
    2190       2    2160    2163    2172       2    2160    2166    2178       2
    2160    2166    2181       2    2160    2169    2184       2    2160    2169
    2187       2    2355    2364    2358       2    2349    2358    2364       2
    2346    2337    2349       2    2346    2355    2364       2    2340    2346
    2355       2    2337    2346    2340       2    2337    2346    2355       2
    2337    2349    2358       2    2331    2340    2346       2    2328    2313
    2331       2    2328    2337    2346       2    2328    2337    2349       2
    2316    2328    2337       2    2313    2328    2316       2    2313    2328
    2337       2    2313    2331    2340       2    2307    2292    2313       2
    2295    2316    2328       2    2292    2277    2295       2    2292    2313
    2328       2    2292    2313    2331       2    2289    2307    2292       2
    2286    2274    2289       2    2280    2298    2286       2    2277    2292
    2307       2    2277    2292    2313       2    2277    2295    2316       2
    2274    2268    2277       2    2274    2286    2298       2    2274    2289
    2307       2    2271    2268    2274       2    2271    2268    2277       2
    2271    2280    2298       2    2268    2271    2280       2    2268    2274
    2286       2    2268    2274    2289       2    2268    2277    2292       2
    2268    2277    2295       2    2463    2472    2466       2    2457    2466
    2472       2    2454    2445    2457       2    2454    2463    2472       2
    2448    2454    2463       2    2445    2454    2448       2    2445    2454
    2463       2    2445    2457    2466       2    2439    2448    2454       2
    2436    2421    2439       2    2436    2445    2454       2    2436    2445
    2457       2    2424    2436    2445       2    2421    2436    2424       2
    2421    2436    2445       2    2421    2439    2448       2    2415    2400
    2421       2    2403    2424    2436       2    2400    2385    2403       2
    2400    2421    2436       2    2400    2421    2439       2    2397    2415
    2400       2    2394    2382    2397       2    2388    2406    2394       2
    2385    2400    2415       2    2385    2400    2421       2    2385    2403
    2424       2    2382    2376    2385       2    2382    2394    2406       2
    2382    2397    2415       2    2379    2376    2382       2    2379    2376
    2385       2    2379    2388    2406       2    2376    2379    2388       2
    2376    2382    2394       2    2376    2382    2397       2    2376    2385
    2400       2    2376    2385    2403       2    2571    2580    2574       2
    2565    2574    2580       2    2562    2553    2565       2    2562    2571
    2580       2    2556    2562    2571       2    2553    2562    2556       2
    2553    2562    2571       2    2553    2565    2574       2    2547    2556
    2562       2    2544    2529    2547       2    2544    2553    2562       2
    2544    2553    2565       2    2532    2544    2553       2    2529    2544
    2532       2    2529    2544    2553       2    2529    2547    2556       2
    2523    2508    2529       2    2511    2532    2544       2    2508    2493
    2511       2    2508    2529    2544       2    2508    2529    2547       2
    2505    2523    2508       2    2502    2490    2505       2    2496    2514
    2502       2    2493    2508    2523       2    2493    2508    2529       2
    2493    2511    2532       2    2490    2484    2493       2    2490    2502
    2514       2    2490    2505    2523       2    2487    2484    2490       2
    2487    2484    2493       2    2487    2496    2514       2    2484    2487
    2496       2    2484    2490    2502       2    2484    2490    2505       2
    2484    2493    2508       2    2484    2493    2511       2    2679    2688
    2682       2    2673    2682    2688       2    2670    2661    2673       2
    2670    2679    2688       2    2664    2670    2679       2    2661    2670
    2664       2    2661    2670    2679       2    2661    2673    2682       2
    2655    2664    2670       2    2652    2637    2655       2    2652    2661
    2670       2    2652    2661    2673       2    2640    2652    2661       2
    2637    2652    2640       2    2637    2652    2661       2    2637    2655
    2664       2    2631    2616    2637       2    2619    2640    2652       2
    2616    2601    2619       2    2616    2637    2652       2    2616    2637
    2655       2    2613    2631    2616       2    2610    2598    2613       2
    2604    2622    2610       2    2601    2616    2631       2    2601    2616
    2637       2    2601    2619    2640       2    2598    2592    2601       2
    2598    2610    2622       2    2598    2613    2631       2    2595    2592
    2598       2    2595    2592    2601       2    2595    2604    2622       2
    2592    2595    2604       2    2592    2598    2610       2    2592    2598
    2613       2    2592    2601    2616       2    2592    2601    2619       2
    2787    2796    2790       2    2781    2790    2796       2    2778    2769
    2781       2    2778    2787    2796       2    2772    2778    2787       2
    2769    2778    2772       2    2769    2778    2787       2    2769    2781
    2790       2    2763    2772    2778       2    2760    2745    2763       2
    2760    2769    2778       2    2760    2769    2781       2    2748    2760
    2769       2    2745    2760    2748       2    2745    2760    2769       2
    2745    2763    2772       2    2739    2724    2745       2    2727    2748
    2760       2    2724    2709    2727       2    2724    2745    2760       2
    2724    2745    2763       2    2721    2739    2724       2    2718    2706
    2721       2    2712    2730    2718       2    2709    2724    2739       2
    2709    2724    2745       2    2709    2727    2748       2    2706    2700
    2709       2    2706    2718    2730       2    2706    2721    2739       2
    2703    2700    2706       2    2703    2700    2709       2    2703    2712
    2730       2    2700    2703    2712       2    2700    2706    2718       2
    2700    2706    2721       2    2700    2709    2724       2    2700    2709
    2727       2    2895    2904    2898       2    2889    2898    2904       2
    2886    2877    2889       2    2886    2895    2904       2    2880    2886
    2895       2    2877    2886    2880       2    2877    2886    2895       2
    2877    2889    2898       2    2871    2880    2886       2    2868    2853
    2871       2    2868    2877    2886       2    2868    2877    2889       2
    2856    2868    2877       2    2853    2868    2856       2    2853    2868
    2877       2    2853    2871    2880       2    2847    2832    2853       2
    2835    2856    2868       2    2832    2817    2835       2    2832    2853
    2868       2    2832    2853    2871       2    2829    2847    2832       2
    2826    2814    2829       2    2820    2838    2826       2    2817    2832
    2847       2    2817    2832    2853       2    2817    2835    2856       2
    2814    2808    2817       2    2814    2826    2838       2    2814    2829
    2847       2    2811    2808    2814       2    2811    2808    2817       2
    2811    2820    2838       2    2808    2811    2820       2    2808    2814
    2826       2    2808    2814    2829       2    2808    2817    2832       2
    2808    2817    2835       2    3003    3012    3006       2    2997    3006
    3012       2    2994    2985    2997       2    2994    3003    3012       2
    2988    2994    3003       2    2985    2994    2988       2    2985    2994
    3003       2    2985    2997    3006       2    2979    2988    2994       2
    2976    2961    2979       2    2976    2985    2994       2    2976    2985
    2997       2    2964    2976    2985       2    2961    2976    2964       2
    2961    2976    2985       2    2961    2979    2988       2    2955    2940
    2961       2    2943    2964    2976       2    2940    2925    2943       2
    2940    2961    2976       2    2940    2961    2979       2    2937    2955
    2940       2    2934    2922    2937       2    2928    2946    2934       2
    2925    2940    2955       2    2925    2940    2961       2    2925    2943
    2964       2    2922    2916    2925       2    2922    2934    2946       2
    2922    2937    2955       2    2919    2916    2922       2    2919    2916
    2925       2    2919    2928    2946       2    2916    2919    2928       2
    2916    2922    2934       2    2916    2922    2937       2    2916    2925
    2940       2    2916    2925    2943       2    3111    3120    3114       2
    3105    3114    3120       2    3102    3093    3105       2    3102    3111
    3120       2    3096    3102    3111       2    3093    3102    3096       2
    3093    3102    3111       2    3093    3105    3114       2    3087    3096
    3102       2    3084    3069    3087       2    3084    3093    3102       2
    3084    3093    3105       2    3072    3084    3093       2    3069    3084
    3072       2    3069    3084    3093       2    3069    3087    3096       2
    3063    3048    3069       2    3051    3072    3084       2    3048    3033
    3051       2    3048    3069    3084       2    3048    3069    3087       2
    3045    3063    3048       2    3042    3030    3045       2    3036    3054
    3042       2    3033    3048    3063       2    3033    3048    3069       2
    3033    3051    3072       2    3030    3024    3033       2    3030    3042
    3054       2    3030    3045    3063       2    3027    3024    3030       2
    3027    3024    3033       2    3027    3036    3054       2    3024    3027
    3036       2    3024    3030    3042       2    3024    3030    3045       2
    3024    3033    3048       2    3024    3033    3051       2    3219    3228
    3222       2    3213    3222    3228       2    3210    3201    3213       2
    3210    3219    3228       2    3204    3210    3219       2    3201    3210
    3204       2    3201    3210    3219       2    3201    3213    3222       2
    3195    3204    3210       2    3192    3177    3195       2    3192    3201
    3210       2    3192    3201    3213       2    3180    3192    3201       2
    3177    3192    3180       2    3177    3192    3201       2    3177    3195
    3204       2    3171    3156    3177       2    3159    3180    3192       2
    3156    3141    3159       2    3156    3177    3192       2    3156    3177
    3195       2    3153    3171    3156       2    3150    3138    3153       2
    3144    3162    3150       2    3141    3156    3171       2    3141    3156
    3177       2    3141    3159    3180       2    3138    3132    3141       2
    3138    3150    3162       2    3138    3153    3171       2    3135    3132
    3138       2    3135    3132    3141       2    3135    3144    3162       2
    3132    3135    3144       2    3132    3138    3150       2    3132    3138
    3153       2    3132    3141    3156       2    3132    3141    3159       2
    3327    3336    3330       2    3321    3330    3336       2    3318    3309
    3321       2    3318    3327    3336       2    3312    3318    3327       2
    3309    3318    3312       2    3309    3318    3327       2    3309    3321
    3330       2    3303    3312    3318       2    3300    3285    3303       2
    3300    3309    3318       2    3300    3309    3321       2    3288    3300
    3309       2    3285    3300    3288       2    3285    3300    3309       2
    3285    3303    3312       2    3279    3264    3285       2    3267    3288
    3300       2    3264    3249    3267       2    3264    3285    3300       2
    3264    3285    3303       2    3261    3279    3264       2    3258    3246
    3261       2    3252    3270    3258       2    3249    3264    3279       2
    3249    3264    3285       2    3249    3267    3288       2    3246    3240
    3249       2    3246    3258    3270       2    3246    3261    3279       2
    3243    3240    3246       2    3243    3240    3249       2    3243    3252
    3270       2    3240    3243    3252       2    3240    3246    3258       2
    3240    3246    3261       2    3240    3249    3264       2    3240    3249
    3267       2    3435    3444    3438       2    3429    3438    3444       2
    3426    3417    3429       2    3426    3435    3444       2    3420    3426
    3435       2    3417    3426    3420       2    3417    3426    3435       2
    3417    3429    3438       2    3411    3420    3426       2    3408    3393
    3411       2    3408    3417    3426       2    3408    3417    3429       2
    3396    3408    3417       2    3393    3408    3396       2    3393    3408
    3417       2    3393    3411    3420       2    3387    3372    3393       2
    3375    3396    3408       2    3372    3357    3375       2    3372    3393
    3408       2    3372    3393    3411       2    3369    3387    3372       2
    3366    3354    3369       2    3360    3378    3366       2    3357    3372
    3387       2    3357    3372    3393       2    3357    3375    3396       2
    3354    3348    3357       2    3354    3366    3378       2    3354    3369
    3387       2    3351    3348    3354       2    3351    3348    3357       2
    3351    3360    3378       2    3348    3351    3360       2    3348    3354
    3366       2    3348    3354    3369       2    3348    3357    3372       2
    3348    3357    3375       2    3543    3552    3546       2    3537    3546
    3552       2    3534    3525    3537       2    3534    3543    3552       2
    3528    3534    3543       2    3525    3534    3528       2    3525    3534
    3543       2    3525    3537    3546       2    3519    3528    3534       2
    3516    3501    3519       2    3516    3525    3534       2    3516    3525
    3537       2    3504    3516    3525       2    3501    3516    3504       2
    3501    3516    3525       2    3501    3519    3528       2    3495    3480
    3501       2    3483    3504    3516       2    3480    3465    3483       2
    3480    3501    3516       2    3480    3501    3519       2    3477    3495
    3480       2    3474    3462    3477       2    3468    3486    3474       2
    3465    3480    3495       2    3465    3480    3501       2    3465    3483
    3504       2    3462    3456    3465       2    3462    3474    3486       2
    3462    3477    3495       2    3459    3456    3462       2    3459    3456
    3465       2    3459    3468    3486       2    3456    3459    3468       2
    3456    3462    3474       2    3456    3462    3477       2    3456    3465
    3480       2    3456    3465    3483       2    3651    3660    3654       2
    3645    3654    3660       2    3642    3633    3645       2    3642    3651
    3660       2    3636    3642    3651       2    3633    3642    3636       2
    3633    3642    3651       2    3633    3645    3654       2    3627    3636
    3642       2    3624    3609    3627       2    3624    3633    3642       2
    3624    3633    3645       2    3612    3624    3633       2    3609    3624
    3612       2    3609    3624    3633       2    3609    3627    3636       2
    3603    3588    3609       2    3591    3612    3624       2    3588    3573
    3591       2    3588    3609    3624       2    3588    3609    3627       2
    3585    3603    3588       2    3582    3570    3585       2    3576    3594
    3582       2    3573    3588    3603       2    3573    3588    3609       2
    3573    3591    3612       2    3570    3564    3573       2    3570    3582
    3594       2    3570    3585    3603       2    3567    3564    3570       2
    3567    3564    3573       2    3567    3576    3594       2    3564    3567
    3576       2    3564    3570    3582       2    3564    3570    3585       2
    3564    3573    3588       2    3564    3573    3591       2    3759    3768
    3762       2    3753    3762    3768       2    3750    3741    3753       2
    3750    3759    3768       2    3744    3750    3759       2    3741    3750
    3744       2    3741    3750    3759       2    3741    3753    3762       2
    3735    3744    3750       2    3732    3717    3735       2    3732    3741
    3750       2    3732    3741    3753       2    3720    3732    3741       2
    3717    3732    3720       2    3717    3732    3741       2    3717    3735
    3744       2    3711    3696    3717       2    3699    3720    3732       2
    3696    3681    3699       2    3696    3717    3732       2    3696    3717
    3735       2    3693    3711    3696       2    3690    3678    3693       2
    3684    3702    3690       2    3681    3696    3711       2    3681    3696
    3717       2    3681    3699    3720       2    3678    3672    3681       2
    3678    3690    3702       2    3678    3693    3711       2    3675    3672
    3678       2    3675    3672    3681       2    3675    3684    3702       2
    3672    3675    3684       2    3672    3678    3690       2    3672    3678
    3693       2    3672    3681    3696       2    3672    3681    3699       2
    3867    3876    3870       2    3861    3870    3876       2    3858    3849
    3861       2    3858    3867    3876       2    3852    3858    3867       2
    3849    3858    3852       2    3849    3858    3867       2    3849    3861
    3870       2    3843    3852    3858       2    3840    3825    3843       2
    3840    3849    3858       2    3840    3849    3861       2    3828    3840
    3849       2    3825    3840    3828       2    3825    3840    3849       2
    3825    3843    3852       2    3819    3804    3825       2    3807    3828
    3840       2    3804    3789    3807       2    3804    3825    3840       2
    3804    3825    3843       2    3801    3819    3804       2    3798    3786
    3801       2    3792    3810    3798       2    3789    3804    3819       2
    3789    3804    3825       2    3789    3807    3828       2    3786    3780
    3789       2    3786    3798    3810       2    3786    3801    3819       2
    3783    3780    3786       2    3783    3780    3789       2    3783    3792
    3810       2    3780    3783    3792       2    3780    3786    3798       2
    3780    3786    3801       2    3780    3789    3804       2    3780    3789
    3807       2    3975    3984    3978       2    3969    3978    3984       2
    3966    3957    3969       2    3966    3975    3984       2    3960    3966
    3975       2    3957    3966    3960       2    3957    3966    3975       2
    3957    3969    3978       2    3951    3960    3966       2    3948    3933
    3951       2    3948    3957    3966       2    3948    3957    3969       2
    3936    3948    3957       2    3933    3948    3936       2    3933    3948
    3957       2    3933    3951    3960       2    3927    3912    3933       2
    3915    3936    3948       2    3912    3897    3915       2    3912    3933
    3948       2    3912    3933    3951       2    3909    3927    3912       2
    3906    3894    3909       2    3900    3918    3906       2    3897    3912
    3927       2    3897    3912    3933       2    3897    3915    3936       2
    3894    3888    3897       2    3894    3906    3918       2    3894    3909
    3927       2    3891    3888    3894       2    3891    3888    3897       2
    3891    3900    3918       2    3888    3891    3900       2    3888    3894
    3906       2    3888    3894    3909       2    3888    3897    3912       2
    3888    3897    3915       2    4083    4092    4086       2    4077    4086
    4092       2    4074    4065    4077       2    4074    4083    4092       2
    4068    4074    4083       2    4065    4074    4068       2    4065    4074
    4083       2    4065    4077    4086       2    4059    4068    4074       2
    4056    4041    4059       2    4056    4065    4074       2    4056    4065
    4077       2    4044    4056    4065       2    4041    4056    4044       2
    4041    4056    4065       2    4041    4059    4068       2    4035    4020
    4041       2    4023    4044    4056       2    4020    4005    4023       2
    4020    4041    4056       2    4020    4041    4059       2    4017    4035
    4020       2    4014    4002    4017       2    4008    4026    4014       2
    4005    4020    4035       2    4005    4020    4041       2    4005    4023
    4044       2    4002    3996    4005       2    4002    4014    4026       2
    4002    4017    4035       2    3999    3996    4002       2    3999    3996
    4005       2    3999    4008    4026       2    3996    3999    4008       2
    3996    4002    4014       2    3996    4002    4017       2    3996    4005
    4020       2    3996    4005    4023       2    4191    4200    4194       2
    4185    4194    4200       2    4182    4173    4185       2    4182    4191
    4200       2    4176    4182    4191       2    4173    4182    4176       2
    4173    4182    4191       2    4173    4185    4194       2    4167    4176
    4182       2    4164    4149    4167       2    4164    4173    4182       2
    4164    4173    4185       2    4152    4164    4173       2    4149    4164
    4152       2    4149    4164    4173       2    4149    4167    4176       2
    4143    4128    4149       2    4131    4152    4164       2    4128    4113
    4131       2    4128    4149    4164       2    4128    4149    4167       2
    4125    4143    4128       2    4122    4110    4125       2    4116    4134
    4122       2    4113    4128    4143       2    4113    4128    4149       2
    4113    4131    4152       2    4110    4104    4113       2    4110    4122
    4134       2    4110    4125    4143       2    4107    4104    4110       2
    4107    4104    4113       2    4107    4116    4134       2    4104    4107
    4116       2    4104    4110    4122       2    4104    4110    4125       2
    4104    4113    4128       2    4104    4113    4131       2    4299    4308
    4302       2    4293    4302    4308       2    4290    4281    4293       2
    4290    4299    4308       2    4284    4290    4299       2    4281    4290
    4284       2    4281    4290    4299       2    4281    4293    4302       2
    4275    4284    4290       2    4272    4257    4275       2    4272    4281
    4290       2    4272    4281    4293       2    4260    4272    4281       2
    4257    4272    4260       2    4257    4272    4281       2    4257    4275
    4284       2    4251    4236    4257       2    4239    4260    4272       2
    4236    4221    4239       2    4236    4257    4272       2    4236    4257
    4275       2    4233    4251    4236       2    4230    4218    4233       2
    4224    4242    4230       2    4221    4236    4251       2    4221    4236
    4257       2    4221    4239    4260       2    4218    4212    4221       2
    4218    4230    4242       2    4218    4233    4251       2    4215    4212
    4218       2    4215    4212    4221       2    4215    4224    4242       2
    4212    4215    4224       2    4212    4218    4230       2    4212    4218
    4233       2    4212    4221    4236       2    4212    4221    4239       2
    4407    4416    4410       2    4401    4410    4416       2    4398    4389
    4401       2    4398    4407    4416       2    4392    4398    4407       2
    4389    4398    4392       2    4389    4398    4407       2    4389    4401
    4410       2    4383    4392    4398       2    4380    4365    4383       2
    4380    4389    4398       2    4380    4389    4401       2    4368    4380
    4389       2    4365    4380    4368       2    4365    4380    4389       2
    4365    4383    4392       2    4359    4344    4365       2    4347    4368
    4380       2    4344    4329    4347       2    4344    4365    4380       2
    4344    4365    4383       2    4341    4359    4344       2    4338    4326
    4341       2    4332    4350    4338       2    4329    4344    4359       2
    4329    4344    4365       2    4329    4347    4368       2    4326    4320
    4329       2    4326    4338    4350       2    4326    4341    4359       2
    4323    4320    4326       2    4323    4320    4329       2    4323    4332
    4350       2    4320    4323    4332       2    4320    4326    4338       2
    4320    4326    4341       2    4320    4329    4344       2    4320    4329
    4347       2    4515    4524    4518       2    4509    4518    4524       2
    4506    4497    4509       2    4506    4515    4524       2    4500    4506
    4515       2    4497    4506    4500       2    4497    4506    4515       2
    4497    4509    4518       2    4491    4500    4506       2    4488    4473
    4491       2    4488    4497    4506       2    4488    4497    4509       2
    4476    4488    4497       2    4473    4488    4476       2    4473    4488
    4497       2    4473    4491    4500       2    4467    4452    4473       2
    4455    4476    4488       2    4452    4437    4455       2    4452    4473
    4488       2    4452    4473    4491       2    4449    4467    4452       2
    4446    4434    4449       2    4440    4458    4446       2    4437    4452
    4467       2    4437    4452    4473       2    4437    4455    4476       2
    4434    4428    4437       2    4434    4446    4458       2    4434    4449
    4467       2    4431    4428    4434       2    4431    4428    4437       2
    4431    4440    4458       2    4428    4431    4440       2    4428    4434
    4446       2    4428    4434    4449       2    4428    4437    4452       2
    4428    4437    4455       2    4623    4632    4626       2    4617    4626
    4632       2    4614    4605    4617       2    4614    4623    4632       2
    4608    4614    4623       2    4605    4614    4608       2    4605    4614
    4623       2    4605    4617    4626       2    4599    4608    4614       2
    4596    4581    4599       2    4596    4605    4614       2    4596    4605
    4617       2    4584    4596    4605       2    4581    4596    4584       2
    4581    4596    4605       2    4581    4599    4608       2    4575    4560
    4581       2    4563    4584    4596       2    4560    4545    4563       2
    4560    4581    4596       2    4560    4581    4599       2    4557    4575
    4560       2    4554    4542    4557       2    4548    4566    4554       2
    4545    4560    4575       2    4545    4560    4581       2    4545    4563
    4584       2    4542    4536    4545       2    4542    4554    4566       2
    4542    4557    4575       2    4539    4536    4542       2    4539    4536
    4545       2    4539    4548    4566       2    4536    4539    4548       2
    4536    4542    4554       2    4536    4542    4557       2    4536    4545
    4560       2    4536    4545    4563       2    4731    4740    4734       2
    4725    4734    4740       2    4722    4713    4725       2    4722    4731
    4740       2    4716    4722    4731       2    4713    4722    4716       2
    4713    4722    4731       2    4713    4725    4734       2    4707    4716
    4722       2    4704    4689    4707       2    4704    4713    4722       2
    4704    4713    4725       2    4692    4704    4713       2    4689    4704
    4692       2    4689    4704    4713       2    4689    4707    4716       2
    4683    4668    4689       2    4671    4692    4704       2    4668    4653
    4671       2    4668    4689    4704       2    4668    4689    4707       2
    4665    4683    4668       2    4662    4650    4665       2    4656    4674
    4662       2    4653    4668    4683       2    4653    4668    4689       2
    4653    4671    4692       2    4650    4644    4653       2    4650    4662
    4674       2    4650    4665    4683       2    4647    4644    4650       2
    4647    4644    4653       2    4647    4656    4674       2    4644    4647
    4656       2    4644    4650    4662       2    4644    4650    4665       2
    4644    4653    4668       2    4644    4653    4671       2    4839    4848
    4842       2    4833    4842    4848       2    4830    4821    4833       2
    4830    4839    4848       2    4824    4830    4839       2    4821    4830
    4824       2    4821    4830    4839       2    4821    4833    4842       2
    4815    4824    4830       2    4812    4797    4815       2    4812    4821
    4830       2    4812    4821    4833       2    4800    4812    4821       2
    4797    4812    4800       2    4797    4812    4821       2    4797    4815
    4824       2    4791    4776    4797       2    4779    4800    4812       2
    4776    4761    4779       2    4776    4797    4812       2    4776    4797
    4815       2    4773    4791    4776       2    4770    4758    4773       2
    4764    4782    4770       2    4761    4776    4791       2    4761    4776
    4797       2    4761    4779    4800       2    4758    4752    4761       2
    4758    4770    4782       2    4758    4773    4791       2    4755    4752
    4758       2    4755    4752    4761       2    4755    4764    4782       2
    4752    4755    4764       2    4752    4758    4770       2    4752    4758
    4773       2    4752    4761    4776       2    4752    4761    4779       2
    4947    4956    4950       2    4941    4950    4956       2    4938    4929
    4941       2    4938    4947    4956       2    4932    4938    4947       2
    4929    4938    4932       2    4929    4938    4947       2    4929    4941
    4950       2    4923    4932    4938       2    4920    4905    4923       2
    4920    4929    4938       2    4920    4929    4941       2    4908    4920
    4929       2    4905    4920    4908       2    4905    4920    4929       2
    4905    4923    4932       2    4899    4884    4905       2    4887    4908
    4920       2    4884    4869    4887       2    4884    4905    4920       2
    4884    4905    4923       2    4881    4899    4884       2    4878    4866
    4881       2    4872    4890    4878       2    4869    4884    4899       2
    4869    4884    4905       2    4869    4887    4908       2    4866    4860
    4869       2    4866    4878    4890       2    4866    4881    4899       2
    4863    4860    4866       2    4863    4860    4869       2    4863    4872
    4890       2    4860    4863    4872       2    4860    4866    4878       2
    4860    4866    4881       2    4860    4869    4884       2    4860    4869
    4887       2    5055    5064    5058       2    5049    5058    5064       2
    5046    5037    5049       2    5046    5055    5064       2    5040    5046
    5055       2    5037    5046    5040       2    5037    5046    5055       2
    5037    5049    5058       2    5031    5040    5046       2    5028    5013
    5031       2    5028    5037    5046       2    5028    5037    5049       2
    5016    5028    5037       2    5013    5028    5016       2    5013    5028
    5037       2    5013    5031    5040       2    5007    4992    5013       2
    4995    5016    5028       2    4992    4977    4995       2    4992    5013
    5028       2    4992    5013    5031       2    4989    5007    4992       2
    4986    4974    4989       2    4980    4998    4986       2    4977    4992
    5007       2    4977    4992    5013       2    4977    4995    5016       2
    4974    4968    4977       2    4974    4986    4998       2    4974    4989
    5007       2    4971    4968    4974       2    4971    4968    4977       2
    4971    4980    4998       2    4968    4971    4980       2    4968    4974
    4986       2    4968    4974    4989       2    4968    4977    4992       2
    4968    4977    4995       2    5163    5172    5166       2    5157    5166
    5172       2    5154    5145    5157       2    5154    5163    5172       2
    5148    5154    5163       2    5145    5154    5148       2    5145    5154
    5163       2    5145    5157    5166       2    5139    5148    5154       2
    5136    5121    5139       2    5136    5145    5154       2    5136    5145
    5157       2    5124    5136    5145       2    5121    5136    5124       2
    5121    5136    5145       2    5121    5139    5148       2    5115    5100
    5121       2    5103    5124    5136       2    5100    5085    5103       2
    5100    5121    5136       2    5100    5121    5139       2    5097    5115
    5100       2    5094    5082    5097       2    5088    5106    5094       2
    5085    5100    5115       2    5085    5100    5121       2    5085    5103
    5124       2    5082    5076    5085       2    5082    5094    5106       2
    5082    5097    5115       2    5079    5076    5082       2    5079    5076
    5085       2    5079    5088    5106       2    5076    5079    5088       2
    5076    5082    5094       2    5076    5082    5097       2    5076    5085
    5100       2    5076    5085    5103       2    5271    5280    5274       2
    5265    5274    5280       2    5262    5253    5265       2    5262    5271
    5280       2    5256    5262    5271       2    5253    5262    5256       2
    5253    5262    5271       2    5253    5265    5274       2    5247    5256
    5262       2    5244    5229    5247       2    5244    5253    5262       2
    5244    5253    5265       2    5232    5244    5253       2    5229    5244
    5232       2    5229    5244    5253       2    5229    5247    5256       2
    5223    5208    5229       2    5211    5232    5244       2    5208    5193
    5211       2    5208    5229    5244       2    5208    5229    5247       2
    5205    5223    5208       2    5202    5190    5205       2    5196    5214
    5202       2    5193    5208    5223       2    5193    5208    5229       2
    5193    5211    5232       2    5190    5184    5193       2    5190    5202
    5214       2    5190    5205    5223       2    5187    5184    5190       2
    5187    5184    5193       2    5187    5196    5214       2    5184    5187
    5196       2    5184    5190    5202       2    5184    5190    5205       2
    5184    5193    5208       2    5184    5193    5211       2    5379    5388
    5382       2    5373    5382    5388       2    5370    5361    5373       2
    5370    5379    5388       2    5364    5370    5379       2    5361    5370
    5364       2    5361    5370    5379       2    5361    5373    5382       2
    5355    5364    5370       2    5352    5337    5355       2    5352    5361
    5370       2    5352    5361    5373       2    5340    5352    5361       2
    5337    5352    5340       2    5337    5352    5361       2    5337    5355
    5364       2    5331    5316    5337       2    5319    5340    5352       2
    5316    5301    5319       2    5316    5337    5352       2    5316    5337
    5355       2    5313    5331    5316       2    5310    5298    5313       2
    5304    5322    5310       2    5301    5316    5331       2    5301    5316
    5337       2    5301    5319    5340       2    5298    5292    5301       2
    5298    5310    5322       2    5298    5313    5331       2    5295    5292
    5298       2    5295    5292    5301       2    5295    5304    5322       2
    5292    5295    5304       2    5292    5298    5310       2    5292    5298
    5313       2    5292    5301    5316       2    5292    5301    5319       2
    5487    5496    5490       2    5481    5490    5496       2    5478    5469
    5481       2    5478    5487    5496       2    5472    5478    5487       2
    5469    5478    5472       2    5469    5478    5487       2    5469    5481
    5490       2    5463    5472    5478       2    5460    5445    5463       2
    5460    5469    5478       2    5460    5469    5481       2    5448    5460
    5469       2    5445    5460    5448       2    5445    5460    5469       2
    5445    5463    5472       2    5439    5424    5445       2    5427    5448
    5460       2    5424    5409    5427       2    5424    5445    5460       2
    5424    5445    5463       2    5421    5439    5424       2    5418    5406
    5421       2    5412    5430    5418       2    5409    5424    5439       2
    5409    5424    5445       2    5409    5427    5448       2    5406    5400
    5409       2    5406    5418    5430       2    5406    5421    5439       2
    5403    5400    5406       2    5403    5400    5409       2    5403    5412
    5430       2    5400    5403    5412       2    5400    5406    5418       2
    5400    5406    5421       2    5400    5409    5424       2    5400    5409
    5427       2    5595    5604    5598       2    5589    5598    5604       2
    5586    5577    5589       2    5586    5595    5604       2    5580    5586
    5595       2    5577    5586    5580       2    5577    5586    5595       2
    5577    5589    5598       2    5571    5580    5586       2    5568    5553
    5571       2    5568    5577    5586       2    5568    5577    5589       2
    5556    5568    5577       2    5553    5568    5556       2    5553    5568
    5577       2    5553    5571    5580       2    5547    5532    5553       2
    5535    5556    5568       2    5532    5517    5535       2    5532    5553
    5568       2    5532    5553    5571       2    5529    5547    5532       2
    5526    5514    5529       2    5520    5538    5526       2    5517    5532
    5547       2    5517    5532    5553       2    5517    5535    5556       2
    5514    5508    5517       2    5514    5526    5538       2    5514    5529
    5547       2    5511    5508    5514       2    5511    5508    5517       2
    5511    5520    5538       2    5508    5511    5520       2    5508    5514
    5526       2    5508    5514    5529       2    5508    5517    5532       2
    5508    5517    5535       2    5703    5712    5706       2    5697    5706
    5712       2    5694    5685    5697       2    5694    5703    5712       2
    5688    5694    5703       2    5685    5694    5688       2    5685    5694
    5703       2    5685    5697    5706       2    5679    5688    5694       2
    5676    5661    5679       2    5676    5685    5694       2    5676    5685
    5697       2    5664    5676    5685       2    5661    5676    5664       2
    5661    5676    5685       2    5661    5679    5688       2    5655    5640
    5661       2    5643    5664    5676       2    5640    5625    5643       2
    5640    5661    5676       2    5640    5661    5679       2    5637    5655
    5640       2    5634    5622    5637       2    5628    5646    5634       2
    5625    5640    5655       2    5625    5640    5661       2    5625    5643
    5664       2    5622    5616    5625       2    5622    5634    5646       2
    5622    5637    5655       2    5619    5616    5622       2    5619    5616
    5625       2    5619    5628    5646       2    5616    5619    5628       2
    5616    5622    5634       2    5616    5622    5637       2    5616    5625
    5640       2    5616    5625    5643       2    5811    5820    5814       2
    5805    5814    5820       2    5802    5793    5805       2    5802    5811
    5820       2    5796    5802    5811       2    5793    5802    5796       2
    5793    5802    5811       2    5793    5805    5814       2    5787    5796
    5802       2    5784    5769    5787       2    5784    5793    5802       2
    5784    5793    5805       2    5772    5784    5793       2    5769    5784
    5772       2    5769    5784    5793       2    5769    5787    5796       2
    5763    5748    5769       2    5751    5772    5784       2    5748    5733
    5751       2    5748    5769    5784       2    5748    5769    5787       2
    5745    5763    5748       2    5742    5730    5745       2    5736    5754
    5742       2    5733    5748    5763       2    5733    5748    5769       2
    5733    5751    5772       2    5730    5724    5733       2    5730    5742
    5754       2    5730    5745    5763       2    5727    5724    5730       2
    5727    5724    5733       2    5727    5736    5754       2    5724    5727
    5736       2    5724    5730    5742       2    5724    5730    5745       2
    5724    5733    5748       2    5724    5733    5751       2    5919    5928
    5922       2    5913    5922    5928       2    5910    5901    5913       2
    5910    5919    5928       2    5904    5910    5919       2    5901    5910
    5904       2    5901    5910    5919       2    5901    5913    5922       2
    5895    5904    5910       2    5892    5877    5895       2    5892    5901
    5910       2    5892    5901    5913       2    5880    5892    5901       2
    5877    5892    5880       2    5877    5892    5901       2    5877    5895
    5904       2    5871    5856    5877       2    5859    5880    5892       2
    5856    5841    5859       2    5856    5877    5892       2    5856    5877
    5895       2    5853    5871    5856       2    5850    5838    5853       2
    5844    5862    5850       2    5841    5856    5871       2    5841    5856
    5877       2    5841    5859    5880       2    5838    5832    5841       2
    5838    5850    5862       2    5838    5853    5871       2    5835    5832
    5838       2    5835    5832    5841       2    5835    5844    5862       2
    5832    5835    5844       2    5832    5838    5850       2    5832    5838
    5853       2    5832    5841    5856       2    5832    5841    5859       2
    6027    6036    6030       2    6021    6030    6036       2    6018    6009
    6021       2    6018    6027    6036       2    6012    6018    6027       2
    6009    6018    6012       2    6009    6018    6027       2    6009    6021
    6030       2    6003    6012    6018       2    6000    5985    6003       2
    6000    6009    6018       2    6000    6009    6021       2    5988    6000
    6009       2    5985    6000    5988       2    5985    6000    6009       2
    5985    6003    6012       2    5979    5964    5985       2    5967    5988
    6000       2    5964    5949    5967       2    5964    5985    6000       2
    5964    5985    6003       2    5961    5979    5964       2    5958    5946
    5961       2    5952    5970    5958       2    5949    5964    5979       2
    5949    5964    5985       2    5949    5967    5988       2    5946    5940
    5949       2    5946    5958    5970       2    5946    5961    5979       2
    5943    5940    5946       2    5943    5940    5949       2    5943    5952
    5970       2    5940    5943    5952       2    5940    5946    5958       2
    5940    5946    5961       2    5940    5949    5964       2    5940    5949
    5967       2    6135    6144    6138       2    6129    6138    6144       2
    6126    6117    6129       2    6126    6135    6144       2    6120    6126
    6135       2    6117    6126    6120       2    6117    6126    6135       2
    6117    6129    6138       2    6111    6120    6126       2    6108    6093
    6111       2    6108    6117    6126       2    6108    6117    6129       2
    6096    6108    6117       2    6093    6108    6096       2    6093    6108
    6117       2    6093    6111    6120       2    6087    6072    6093       2
    6075    6096    6108       2    6072    6057    6075       2    6072    6093
    6108       2    6072    6093    6111       2    6069    6087    6072       2
    6066    6054    6069       2    6060    6078    6066       2    6057    6072
    6087       2    6057    6072    6093       2    6057    6075    6096       2
    6054    6048    6057       2    6054    6066    6078       2    6054    6069
    6087       2    6051    6048    6054       2    6051    6048    6057       2
    6051    6060    6078       2    6048    6051    6060       2    6048    6054
    6066       2    6048    6054    6069       2    6048    6057    6072       2
    6048    6057    6075       2    6243    6252    6246       2    6237    6246
    6252       2    6234    6225    6237       2    6234    6243    6252       2
    6228    6234    6243       2    6225    6234    6228       2    6225    6234
    6243       2    6225    6237    6246       2    6219    6228    6234       2
    6216    6201    6219       2    6216    6225    6234       2    6216    6225
    6237       2    6204    6216    6225       2    6201    6216    6204       2
    6201    6216    6225       2    6201    6219    6228       2    6195    6180
    6201       2    6183    6204    6216       2    6180    6165    6183       2
    6180    6201    6216       2    6180    6201    6219       2    6177    6195
    6180       2    6174    6162    6177       2    6168    6186    6174       2
    6165    6180    6195       2    6165    6180    6201       2    6165    6183
    6204       2    6162    6156    6165       2    6162    6174    6186       2
    6162    6177    6195       2    6159    6156    6162       2    6159    6156
    6165       2    6159    6168    6186       2    6156    6159    6168       2
    6156    6162    6174       2    6156    6162    6177       2    6156    6165
    6180       2    6156    6165    6183       2    6351    6360    6354       2
    6345    6354    6360       2    6342    6333    6345       2    6342    6351
    6360       2    6336    6342    6351       2    6333    6342    6336       2
    6333    6342    6351       2    6333    6345    6354       2    6327    6336
    6342       2    6324    6309    6327       2    6324    6333    6342       2
    6324    6333    6345       2    6312    6324    6333       2    6309    6324
    6312       2    6309    6324    6333       2    6309    6327    6336       2
    6303    6288    6309       2    6291    6312    6324       2    6288    6273
    6291       2    6288    6309    6324       2    6288    6309    6327       2
    6285    6303    6288       2    6282    6270    6285       2    6276    6294
    6282       2    6273    6288    6303       2    6273    6288    6309       2
    6273    6291    6312       2    6270    6264    6273       2    6270    6282
    6294       2    6270    6285    6303       2    6267    6264    6270       2
    6267    6264    6273       2    6267    6276    6294       2    6264    6267
    6276       2    6264    6270    6282       2    6264    6270    6285       2
    6264    6273    6288       2    6264    6273    6291       2    6459    6468
    6462       2    6453    6462    6468       2    6450    6441    6453       2
    6450    6459    6468       2    6444    6450    6459       2    6441    6450
    6444       2    6441    6450    6459       2    6441    6453    6462       2
    6435    6444    6450       2    6432    6417    6435       2    6432    6441
    6450       2    6432    6441    6453       2    6420    6432    6441       2
    6417    6432    6420       2    6417    6432    6441       2    6417    6435
    6444       2    6411    6396    6417       2    6399    6420    6432       2
    6396    6381    6399       2    6396    6417    6432       2    6396    6417
    6435       2    6393    6411    6396       2    6390    6378    6393       2
    6384    6402    6390       2    6381    6396    6411       2    6381    6396
    6417       2    6381    6399    6420       2    6378    6372    6381       2
    6378    6390    6402       2    6378    6393    6411       2    6375    6372
    6378       2    6375    6372    6381       2    6375    6384    6402       2
    6372    6375    6384       2    6372    6378    6390       2    6372    6378
    6393       2    6372    6381    6396       2    6372    6381    6399       2
    6567    6576    6570       2    6561    6570    6576       2    6558    6549
    6561       2    6558    6567    6576       2    6552    6558    6567       2
    6549    6558    6552       2    6549    6558    6567       2    6549    6561
    6570       2    6543    6552    6558       2    6540    6525    6543       2
    6540    6549    6558       2    6540    6549    6561       2    6528    6540
    6549       2    6525    6540    6528       2    6525    6540    6549       2
    6525    6543    6552       2    6519    6504    6525       2    6507    6528
    6540       2    6504    6489    6507       2    6504    6525    6540       2
    6504    6525    6543       2    6501    6519    6504       2    6498    6486
    6501       2    6492    6510    6498       2    6489    6504    6519       2
    6489    6504    6525       2    6489    6507    6528       2    6486    6480
    6489       2    6486    6498    6510       2    6486    6501    6519       2
    6483    6480    6486       2    6483    6480    6489       2    6483    6492
    6510       2    6480    6483    6492       2    6480    6486    6498       2
    6480    6486    6501       2    6480    6489    6504       2    6480    6489
    6507       2    6675    6684    6678       2    6669    6678    6684       2
    6666    6657    6669       2    6666    6675    6684       2    6660    6666
    6675       2    6657    6666    6660       2    6657    6666    6675       2
    6657    6669    6678       2    6651    6660    6666       2    6648    6633
    6651       2    6648    6657    6666       2    6648    6657    6669       2
    6636    6648    6657       2    6633    6648    6636       2    6633    6648
    6657       2    6633    6651    6660       2    6627    6612    6633       2
    6615    6636    6648       2    6612    6597    6615       2    6612    6633
    6648       2    6612    6633    6651       2    6609    6627    6612       2
    6606    6594    6609       2    6600    6618    6606       2    6597    6612
    6627       2    6597    6612    6633       2    6597    6615    6636       2
    6594    6588    6597       2    6594    6606    6618       2    6594    6609
    6627       2    6591    6588    6594       2    6591    6588    6597       2
    6591    6600    6618       2    6588    6591    6600       2    6588    6594
    6606       2    6588    6594    6609       2    6588    6597    6612       2
    6588    6597    6615       2    6783    6792    6786       2    6777    6786
    6792       2    6774    6765    6777       2    6774    6783    6792       2
    6768    6774    6783       2    6765    6774    6768       2    6765    6774
    6783       2    6765    6777    6786       2    6759    6768    6774       2
    6756    6741    6759       2    6756    6765    6774       2    6756    6765
    6777       2    6744    6756    6765       2    6741    6756    6744       2
    6741    6756    6765       2    6741    6759    6768       2    6735    6720
    6741       2    6723    6744    6756       2    6720    6705    6723       2
    6720    6741    6756       2    6720    6741    6759       2    6717    6735
    6720       2    6714    6702    6717       2    6708    6726    6714       2
    6705    6720    6735       2    6705    6720    6741       2    6705    6723
    6744       2    6702    6696    6705       2    6702    6714    6726       2
    6702    6717    6735       2    6699    6696    6702       2    6699    6696
    6705       2    6699    6708    6726       2    6696    6699    6708       2
    6696    6702    6714       2    6696    6702    6717       2    6696    6705
    6720       2    6696    6705    6723       2    6891    6900    6894       2
    6885    6894    6900       2    6882    6873    6885       2    6882    6891
    6900       2    6876    6882    6891       2    6873    6882    6876       2
    6873    6882    6891       2    6873    6885    6894       2    6867    6876
    6882       2    6864    6849    6867       2    6864    6873    6882       2
    6864    6873    6885       2    6852    6864    6873       2    6849    6864
    6852       2    6849    6864    6873       2    6849    6867    6876       2
    6843    6828    6849       2    6831    6852    6864       2    6828    6813
    6831       2    6828    6849    6864       2    6828    6849    6867       2
    6825    6843    6828       2    6822    6810    6825       2    6816    6834
    6822       2    6813    6828    6843       2    6813    6828    6849       2
    6813    6831    6852       2    6810    6804    6813       2    6810    6822
    6834       2    6810    6825    6843       2    6807    6804    6810       2
    6807    6804    6813       2    6807    6816    6834       2    6804    6807
    6816       2    6804    6810    6822       2    6804    6810    6825       2
    6804    6813    6828       2    6804    6813    6831       2    6999    7008
    7002       2    6993    7002    7008       2    6990    6981    6993       2
    6990    6999    7008       2    6984    6990    6999       2    6981    6990
    6984       2    6981    6990    6999       2    6981    6993    7002       2
    6975    6984    6990       2    6972    6957    6975       2    6972    6981
    6990       2    6972    6981    6993       2    6960    6972    6981       2
    6957    6972    6960       2    6957    6972    6981       2    6957    6975
    6984       2    6951    6936    6957       2    6939    6960    6972       2
    6936    6921    6939       2    6936    6957    6972       2    6936    6957
    6975       2    6933    6951    6936       2    6930    6918    6933       2
    6924    6942    6930       2    6921    6936    6951       2    6921    6936
    6957       2    6921    6939    6960       2    6918    6912    6921       2
    6918    6930    6942       2    6918    6933    6951       2    6915    6912
    6918       2    6915    6912    6921       2    6915    6924    6942       2
    6912    6915    6924       2    6912    6918    6930       2    6912    6918
    6933       2    6912    6921    6936       2    6912    6921    6939       2
    7107    7116    7110       2    7101    7110    7116       2    7098    7089
    7101       2    7098    7107    7116       2    7092    7098    7107       2
    7089    7098    7092       2    7089    7098    7107       2    7089    7101
    7110       2    7083    7092    7098       2    7080    7065    7083       2
    7080    7089    7098       2    7080    7089    7101       2    7068    7080
    7089       2    7065    7080    7068       2    7065    7080    7089       2
    7065    7083    7092       2    7059    7044    7065       2    7047    7068
    7080       2    7044    7029    7047       2    7044    7065    7080       2
    7044    7065    7083       2    7041    7059    7044       2    7038    7026
    7041       2    7032    7050    7038       2    7029    7044    7059       2
    7029    7044    7065       2    7029    7047    7068       2    7026    7020
    7029       2    7026    7038    7050       2    7026    7041    7059       2
    7023    7020    7026       2    7023    7020    7029       2    7023    7032
    7050       2    7020    7023    7032       2    7020    7026    7038       2
    7020    7026    7041       2    7020    7029    7044       2    7020    7029
    7047       2    7215    7224    7218       2    7209    7218    7224       2
    7206    7197    7209       2    7206    7215    7224       2    7200    7206
    7215       2    7197    7206    7200       2    7197    7206    7215       2
    7197    7209    7218       2    7191    7200    7206       2    7188    7173
    7191       2    7188    7197    7206       2    7188    7197    7209       2
    7176    7188    7197       2    7173    7188    7176       2    7173    7188
    7197       2    7173    7191    7200       2    7167    7152    7173       2
    7155    7176    7188       2    7152    7137    7155       2    7152    7173
    7188       2    7152    7173    7191       2    7149    7167    7152       2
    7146    7134    7149       2    7140    7158    7146       2    7137    7152
    7167       2    7137    7152    7173       2    7137    7155    7176       2
    7134    7128    7137       2    7134    7146    7158       2    7134    7149
    7167       2    7131    7128    7134       2    7131    7128    7137       2
    7131    7140    7158       2    7128    7131    7140       2    7128    7134
    7146       2    7128    7134    7149       2    7128    7137    7152       2
    7128    7137    7155       2    7323    7332    7326       2    7317    7326
    7332       2    7314    7305    7317       2    7314    7323    7332       2
    7308    7314    7323       2    7305    7314    7308       2    7305    7314
    7323       2    7305    7317    7326       2    7299    7308    7314       2
    7296    7281    7299       2    7296    7305    7314       2    7296    7305
    7317       2    7284    7296    7305       2    7281    7296    7284       2
    7281    7296    7305       2    7281    7299    7308       2    7275    7260
    7281       2    7263    7284    7296       2    7260    7245    7263       2
    7260    7281    7296       2    7260    7281    7299       2    7257    7275
    7260       2    7254    7242    7257       2    7248    7266    7254       2
    7245    7260    7275       2    7245    7260    7281       2    7245    7263
    7284       2    7242    7236    7245       2    7242    7254    7266       2
    7242    7257    7275       2    7239    7236    7242       2    7239    7236
    7245       2    7239    7248    7266       2    7236    7239    7248       2
    7236    7242    7254       2    7236    7242    7257       2    7236    7245
    7260       2    7236    7245    7263       2    7431    7440    7434       2
    7425    7434    7440       2    7422    7413    7425       2    7422    7431
    7440       2    7416    7422    7431       2    7413    7422    7416       2
    7413    7422    7431       2    7413    7425    7434       2    7407    7416
    7422       2    7404    7389    7407       2    7404    7413    7422       2
    7404    7413    7425       2    7392    7404    7413       2    7389    7404
    7392       2    7389    7404    7413       2    7389    7407    7416       2
    7383    7368    7389       2    7371    7392    7404       2    7368    7353
    7371       2    7368    7389    7404       2    7368    7389    7407       2
    7365    7383    7368       2    7362    7350    7365       2    7356    7374
    7362       2    7353    7368    7383       2    7353    7368    7389       2
    7353    7371    7392       2    7350    7344    7353       2    7350    7362
    7374       2    7350    7365    7383       2    7347    7344    7350       2
    7347    7344    7353       2    7347    7356    7374       2    7344    7347
    7356       2    7344    7350    7362       2    7344    7350    7365       2
    7344    7353    7368       2    7344    7353    7371       2    7539    7548
    7542       2    7533    7542    7548       2    7530    7521    7533       2
    7530    7539    7548       2    7524    7530    7539       2    7521    7530
    7524       2    7521    7530    7539       2    7521    7533    7542       2
    7515    7524    7530       2    7512    7497    7515       2    7512    7521
    7530       2    7512    7521    7533       2    7500    7512    7521       2
    7497    7512    7500       2    7497    7512    7521       2    7497    7515
    7524       2    7491    7476    7497       2    7479    7500    7512       2
    7476    7461    7479       2    7476    7497    7512       2    7476    7497
    7515       2    7473    7491    7476       2    7470    7458    7473       2
    7464    7482    7470       2    7461    7476    7491       2    7461    7476
    7497       2    7461    7479    7500       2    7458    7452    7461       2
    7458    7470    7482       2    7458    7473    7491       2    7455    7452
    7458       2    7455    7452    7461       2    7455    7464    7482       2
    7452    7455    7464       2    7452    7458    7470       2    7452    7458
    7473       2    7452    7461    7476       2    7452    7461    7479       2
    7647    7656    7650       2    7641    7650    7656       2    7638    7629
    7641       2    7638    7647    7656       2    7632    7638    7647       2
    7629    7638    7632       2    7629    7638    7647       2    7629    7641
    7650       2    7623    7632    7638       2    7620    7605    7623       2
    7620    7629    7638       2    7620    7629    7641       2    7608    7620
    7629       2    7605    7620    7608       2    7605    7620    7629       2
    7605    7623    7632       2    7599    7584    7605       2    7587    7608
    7620       2    7584    7569    7587       2    7584    7605    7620       2
    7584    7605    7623       2    7581    7599    7584       2    7578    7566
    7581       2    7572    7590    7578       2    7569    7584    7599       2
    7569    7584    7605       2    7569    7587    7608       2    7566    7560
    7569       2    7566    7578    7590       2    7566    7581    7599       2
    7563    7560    7566       2    7563    7560    7569       2    7563    7572
    7590       2    7560    7563    7572       2    7560    7566    7578       2
    7560    7566    7581       2    7560    7569    7584       2    7560    7569
    7587       2    7755    7764    7758       2    7749    7758    7764       2
    7746    7737    7749       2    7746    7755    7764       2    7740    7746
    7755       2    7737    7746    7740       2    7737    7746    7755       2
    7737    7749    7758       2    7731    7740    7746       2    7728    7713
    7731       2    7728    7737    7746       2    7728    7737    7749       2
    7716    7728    7737       2    7713    7728    7716       2    7713    7728
    7737       2    7713    7731    7740       2    7707    7692    7713       2
    7695    7716    7728       2    7692    7677    7695       2    7692    7713
    7728       2    7692    7713    7731       2    7689    7707    7692       2
    7686    7674    7689       2    7680    7698    7686       2    7677    7692
    7707       2    7677    7692    7713       2    7677    7695    7716       2
    7674    7668    7677       2    7674    7686    7698       2    7674    7689
    7707       2    7671    7668    7674       2    7671    7668    7677       2
    7671    7680    7698       2    7668    7671    7680       2    7668    7674
    7686       2    7668    7674    7689       2    7668    7677    7692       2
    7668    7677    7695       2    7863    7872    7866       2    7857    7866
    7872       2    7854    7845    7857       2    7854    7863    7872       2
    7848    7854    7863       2    7845    7854    7848       2    7845    7854
    7863       2    7845    7857    7866       2    7839    7848    7854       2
    7836    7821    7839       2    7836    7845    7854       2    7836    7845
    7857       2    7824    7836    7845       2    7821    7836    7824       2
    7821    7836    7845       2    7821    7839    7848       2    7815    7800
    7821       2    7803    7824    7836       2    7800    7785    7803       2
    7800    7821    7836       2    7800    7821    7839       2    7797    7815
    7800       2    7794    7782    7797       2    7788    7806    7794       2
    7785    7800    7815       2    7785    7800    7821       2    7785    7803
    7824       2    7782    7776    7785       2    7782    7794    7806       2
    7782    7797    7815       2    7779    7776    7782       2    7779    7776
    7785       2    7779    7788    7806       2    7776    7779    7788       2
    7776    7782    7794       2    7776    7782    7797       2    7776    7785
    7800       2    7776    7785    7803       2    7971    7980    7974       2
    7965    7974    7980       2    7962    7953    7965       2    7962    7971
    7980       2    7956    7962    7971       2    7953    7962    7956       2
    7953    7962    7971       2    7953    7965    7974       2    7947    7956
    7962       2    7944    7929    7947       2    7944    7953    7962       2
    7944    7953    7965       2    7932    7944    7953       2    7929    7944
    7932       2    7929    7944    7953       2    7929    7947    7956       2
    7923    7908    7929       2    7911    7932    7944       2    7908    7893
    7911       2    7908    7929    7944       2    7908    7929    7947       2
    7905    7923    7908       2    7902    7890    7905       2    7896    7914
    7902       2    7893    7908    7923       2    7893    7908    7929       2
    7893    7911    7932       2    7890    7884    7893       2    7890    7902
    7914       2    7890    7905    7923       2    7887    7884    7890       2
    7887    7884    7893       2    7887    7896    7914       2    7884    7887
    7896       2    7884    7890    7902       2    7884    7890    7905       2
    7884    7893    7908       2    7884    7893    7911       2    8079    8088
    8082       2    8073    8082    8088       2    8070    8061    8073       2
    8070    8079    8088       2    8064    8070    8079       2    8061    8070
    8064       2    8061    8070    8079       2    8061    8073    8082       2
    8055    8064    8070       2    8052    8037    8055       2    8052    8061
    8070       2    8052    8061    8073       2    8040    8052    8061       2
    8037    8052    8040       2    8037    8052    8061       2    8037    8055
    8064       2    8031    8016    8037       2    8019    8040    8052       2
    8016    8001    8019       2    8016    8037    8052       2    8016    8037
    8055       2    8013    8031    8016       2    8010    7998    8013       2
    8004    8022    8010       2    8001    8016    8031       2    8001    8016
    8037       2    8001    8019    8040       2    7998    7992    8001       2
    7998    8010    8022       2    7998    8013    8031       2    7995    7992
    7998       2    7995    7992    8001       2    7995    8004    8022       2
    7992    7995    8004       2    7992    7998    8010       2    7992    7998
    8013       2    7992    8001    8016       2    7992    8001    8019       2
    8187    8196    8190       2    8181    8190    8196       2    8178    8169
    8181       2    8178    8187    8196       2    8172    8178    8187       2
    8169    8178    8172       2    8169    8178    8187       2    8169    8181
    8190       2    8163    8172    8178       2    8160    8145    8163       2
    8160    8169    8178       2    8160    8169    8181       2    8148    8160
    8169       2    8145    8160    8148       2    8145    8160    8169       2
    8145    8163    8172       2    8139    8124    8145       2    8127    8148
    8160       2    8124    8109    8127       2    8124    8145    8160       2
    8124    8145    8163       2    8121    8139    8124       2    8118    8106
    8121       2    8112    8130    8118       2    8109    8124    8139       2
    8109    8124    8145       2    8109    8127    8148       2    8106    8100
    8109       2    8106    8118    8130       2    8106    8121    8139       2
    8103    8100    8106       2    8103    8100    8109       2    8103    8112
    8130       2    8100    8103    8112       2    8100    8106    8118       2
    8100    8106    8121       2    8100    8109    8124       2    8100    8109
    8127       2    8295    8304    8298       2    8289    8298    8304       2
    8286    8277    8289       2    8286    8295    8304       2    8280    8286
    8295       2    8277    8286    8280       2    8277    8286    8295       2
    8277    8289    8298       2    8271    8280    8286       2    8268    8253
    8271       2    8268    8277    8286       2    8268    8277    8289       2
    8256    8268    8277       2    8253    8268    8256       2    8253    8268
    8277       2    8253    8271    8280       2    8247    8232    8253       2
    8235    8256    8268       2    8232    8217    8235       2    8232    8253
    8268       2    8232    8253    8271       2    8229    8247    8232       2
    8226    8214    8229       2    8220    8238    8226       2    8217    8232
    8247       2    8217    8232    8253       2    8217    8235    8256       2
    8214    8208    8217       2    8214    8226    8238       2    8214    8229
    8247       2    8211    8208    8214       2    8211    8208    8217       2
    8211    8220    8238       2    8208    8211    8220       2    8208    8214
    8226       2    8208    8214    8229       2    8208    8217    8232       2
    8208    8217    8235       2    8403    8412    8406       2    8397    8406
    8412       2    8394    8385    8397       2    8394    8403    8412       2
    8388    8394    8403       2    8385    8394    8388       2    8385    8394
    8403       2    8385    8397    8406       2    8379    8388    8394       2
    8376    8361    8379       2    8376    8385    8394       2    8376    8385
    8397       2    8364    8376    8385       2    8361    8376    8364       2
    8361    8376    8385       2    8361    8379    8388       2    8355    8340
    8361       2    8343    8364    8376       2    8340    8325    8343       2
    8340    8361    8376       2    8340    8361    8379       2    8337    8355
    8340       2    8334    8322    8337       2    8328    8346    8334       2
    8325    8340    8355       2    8325    8340    8361       2    8325    8343
    8364       2    8322    8316    8325       2    8322    8334    8346       2
    8322    8337    8355       2    8319    8316    8322       2    8319    8316
    8325       2    8319    8328    8346       2    8316    8319    8328       2
    8316    8322    8334       2    8316    8322    8337       2    8316    8325
    8340       2    8316    8325    8343       2    8511    8520    8514       2
    8505    8514    8520       2    8502    8493    8505       2    8502    8511
    8520       2    8496    8502    8511       2    8493    8502    8496       2
    8493    8502    8511       2    8493    8505    8514       2    8487    8496
    8502       2    8484    8469    8487       2    8484    8493    8502       2
    8484    8493    8505       2    8472    8484    8493       2    8469    8484
    8472       2    8469    8484    8493       2    8469    8487    8496       2
    8463    8448    8469       2    8451    8472    8484       2    8448    8433
    8451       2    8448    8469    8484       2    8448    8469    8487       2
    8445    8463    8448       2    8442    8430    8445       2    8436    8454
    8442       2    8433    8448    8463       2    8433    8448    8469       2
    8433    8451    8472       2    8430    8424    8433       2    8430    8442
    8454       2    8430    8445    8463       2    8427    8424    8430       2
    8427    8424    8433       2    8427    8436    8454       2    8424    8427
    8436       2    8424    8430    8442       2    8424    8430    8445       2
    8424    8433    8448       2    8424    8433    8451       2    8619    8628
    8622       2    8613    8622    8628       2    8610    8601    8613       2
    8610    8619    8628       2    8604    8610    8619       2    8601    8610
    8604       2    8601    8610    8619       2    8601    8613    8622       2
    8595    8604    8610       2    8592    8577    8595       2    8592    8601
    8610       2    8592    8601    8613       2    8580    8592    8601       2
    8577    8592    8580       2    8577    8592    8601       2    8577    8595
    8604       2    8571    8556    8577       2    8559    8580    8592       2
    8556    8541    8559       2    8556    8577    8592       2    8556    8577
    8595       2    8553    8571    8556       2    8550    8538    8553       2
    8544    8562    8550       2    8541    8556    8571       2    8541    8556
    8577       2    8541    8559    8580       2    8538    8532    8541       2
    8538    8550    8562       2    8538    8553    8571       2    8535    8532
    8538       2    8535    8532    8541       2    8535    8544    8562       2
    8532    8535    8544       2    8532    8538    8550       2    8532    8538
    8553       2    8532    8541    8556       2    8532    8541    8559       2
    8727    8736    8730       2    8721    8730    8736       2    8718    8709
    8721       2    8718    8727    8736       2    8712    8718    8727       2
    8709    8718    8712       2    8709    8718    8727       2    8709    8721
    8730       2    8703    8712    8718       2    8700    8685    8703       2
    8700    8709    8718       2    8700    8709    8721       2    8688    8700
    8709       2    8685    8700    8688       2    8685    8700    8709       2
    8685    8703    8712       2    8679    8664    8685       2    8667    8688
    8700       2    8664    8649    8667       2    8664    8685    8700       2
    8664    8685    8703       2    8661    8679    8664       2    8658    8646
    8661       2    8652    8670    8658       2    8649    8664    8679       2
    8649    8664    8685       2    8649    8667    8688       2    8646    8640
    8649       2    8646    8658    8670       2    8646    8661    8679       2
    8643    8640    8646       2    8643    8640    8649       2    8643    8652
    8670       2    8640    8643    8652       2    8640    8646    8658       2
    8640    8646    8661       2    8640    8649    8664       2    8640    8649
    8667       2    8835    8844    8838       2    8829    8838    8844       2
    8826    8817    8829       2    8826    8835    8844       2    8820    8826
    8835       2    8817    8826    8820       2    8817    8826    8835       2
    8817    8829    8838       2    8811    8820    8826       2    8808    8793
    8811       2    8808    8817    8826       2    8808    8817    8829       2
    8796    8808    8817       2    8793    8808    8796       2    8793    8808
    8817       2    8793    8811    8820       2    8787    8772    8793       2
    8775    8796    8808       2    8772    8757    8775       2    8772    8793
    8808       2    8772    8793    8811       2    8769    8787    8772       2
    8766    8754    8769       2    8760    8778    8766       2    8757    8772
    8787       2    8757    8772    8793       2    8757    8775    8796       2
    8754    8748    8757       2    8754    8766    8778       2    8754    8769
    8787       2    8751    8748    8754       2    8751    8748    8757       2
    8751    8760    8778       2    8748    8751    8760       2    8748    8754
    8766       2    8748    8754    8769       2    8748    8757    8772       2
    8748    8757    8775       2    8943    8952    8946       2    8937    8946
    8952       2    8934    8925    8937       2    8934    8943    8952       2
    8928    8934    8943       2    8925    8934    8928       2    8925    8934
    8943       2    8925    8937    8946       2    8919    8928    8934       2
    8916    8901    8919       2    8916    8925    8934       2    8916    8925
    8937       2    8904    8916    8925       2    8901    8916    8904       2
    8901    8916    8925       2    8901    8919    8928       2    8895    8880
    8901       2    8883    8904    8916       2    8880    8865    8883       2
    8880    8901    8916       2    8880    8901    8919       2    8877    8895
    8880       2    8874    8862    8877       2    8868    8886    8874       2
    8865    8880    8895       2    8865    8880    8901       2    8865    8883
    8904       2    8862    8856    8865       2    8862    8874    8886       2
    8862    8877    8895       2    8859    8856    8862       2    8859    8856
    8865       2    8859    8868    8886       2    8856    8859    8868       2
    8856    8862    8874       2    8856    8862    8877       2    8856    8865
    8880       2    8856    8865    8883       2    9051    9060    9054       2
    9045    9054    9060       2    9042    9033    9045       2    9042    9051
    9060       2    9036    9042    9051       2    9033    9042    9036       2
    9033    9042    9051       2    9033    9045    9054       2    9027    9036
    9042       2    9024    9009    9027       2    9024    9033    9042       2
    9024    9033    9045       2    9012    9024    9033       2    9009    9024
    9012       2    9009    9024    9033       2    9009    9027    9036       2
    9003    8988    9009       2    8991    9012    9024       2    8988    8973
    8991       2    8988    9009    9024       2    8988    9009    9027       2
    8985    9003    8988       2    8982    8970    8985       2    8976    8994
    8982       2    8973    8988    9003       2    8973    8988    9009       2
    8973    8991    9012       2    8970    8964    8973       2    8970    8982
    8994       2    8970    8985    9003       2    8967    8964    8970       2
    8967    8964    8973       2    8967    8976    8994       2    8964    8967
    8976       2    8964    8970    8982       2    8964    8970    8985       2
    8964    8973    8988       2    8964    8973    8991       2    9159    9168
    9162       2    9153    9162    9168       2    9150    9141    9153       2
    9150    9159    9168       2    9144    9150    9159       2    9141    9150
    9144       2    9141    9150    9159       2    9141    9153    9162       2
    9135    9144    9150       2    9132    9117    9135       2    9132    9141
    9150       2    9132    9141    9153       2    9120    9132    9141       2
    9117    9132    9120       2    9117    9132    9141       2    9117    9135
    9144       2    9111    9096    9117       2    9099    9120    9132       2
    9096    9081    9099       2    9096    9117    9132       2    9096    9117
    9135       2    9093    9111    9096       2    9090    9078    9093       2
    9084    9102    9090       2    9081    9096    9111       2    9081    9096
    9117       2    9081    9099    9120       2    9078    9072    9081       2
    9078    9090    9102       2    9078    9093    9111       2    9075    9072
    9078       2    9075    9072    9081       2    9075    9084    9102       2
    9072    9075    9084       2    9072    9078    9090       2    9072    9078
    9093       2    9072    9081    9096       2    9072    9081    9099       2
    9267    9276    9270       2    9261    9270    9276       2    9258    9249
    9261       2    9258    9267    9276       2    9252    9258    9267       2
    9249    9258    9252       2    9249    9258    9267       2    9249    9261
    9270       2    9243    9252    9258       2    9240    9225    9243       2
    9240    9249    9258       2    9240    9249    9261       2    9228    9240
    9249       2    9225    9240    9228       2    9225    9240    9249       2
    9225    9243    9252       2    9219    9204    9225       2    9207    9228
    9240       2    9204    9189    9207       2    9204    9225    9240       2
    9204    9225    9243       2    9201    9219    9204       2    9198    9186
    9201       2    9192    9210    9198       2    9189    9204    9219       2
    9189    9204    9225       2    9189    9207    9228       2    9186    9180
    9189       2    9186    9198    9210       2    9186    9201    9219       2
    9183    9180    9186       2    9183    9180    9189       2    9183    9192
    9210       2    9180    9183    9192       2    9180    9186    9198       2
    9180    9186    9201       2    9180    9189    9204       2    9180    9189
    9207       2    9375    9384    9378       2    9369    9378    9384       2
    9366    9357    9369       2    9366    9375    9384       2    9360    9366
    9375       2    9357    9366    9360       2    9357    9366    9375       2
    9357    9369    9378       2    9351    9360    9366       2    9348    9333
    9351       2    9348    9357    9366       2    9348    9357    9369       2
    9336    9348    9357       2    9333    9348    9336       2    9333    9348
    9357       2    9333    9351    9360       2    9327    9312    9333       2
    9315    9336    9348       2    9312    9297    9315       2    9312    9333
    9348       2    9312    9333    9351       2    9309    9327    9312       2
    9306    9294    9309       2    9300    9318    9306       2    9297    9312
    9327       2    9297    9312    9333       2    9297    9315    9336       2
    9294    9288    9297       2    9294    9306    9318       2    9294    9309
    9327       2    9291    9288    9294       2    9291    9288    9297       2
    9291    9300    9318       2    9288    9291    9300       2    9288    9294
    9306       2    9288    9294    9309       2    9288    9297    9312       2
    9288    9297    9315       2    9483    9492    9486       2    9477    9486
    9492       2    9474    9465    9477       2    9474    9483    9492       2
    9468    9474    9483       2    9465    9474    9468       2    9465    9474
    9483       2    9465    9477    9486       2    9459    9468    9474       2
    9456    9441    9459       2    9456    9465    9474       2    9456    9465
    9477       2    9444    9456    9465       2    9441    9456    9444       2
    9441    9456    9465       2    9441    9459    9468       2    9435    9420
    9441       2    9423    9444    9456       2    9420    9405    9423       2
    9420    9441    9456       2    9420    9441    9459       2    9417    9435
    9420       2    9414    9402    9417       2    9408    9426    9414       2
    9405    9420    9435       2    9405    9420    9441       2    9405    9423
    9444       2    9402    9396    9405       2    9402    9414    9426       2
    9402    9417    9435       2    9399    9396    9402       2    9399    9396
    9405       2    9399    9408    9426       2    9396    9399    9408       2
    9396    9402    9414       2    9396    9402    9417       2    9396    9405
    9420       2    9396    9405    9423       2    9591    9600    9594       2
    9585    9594    9600       2    9582    9573    9585       2    9582    9591
    9600       2    9576    9582    9591       2    9573    9582    9576       2
    9573    9582    9591       2    9573    9585    9594       2    9567    9576
    9582       2    9564    9549    9567       2    9564    9573    9582       2
    9564    9573    9585       2    9552    9564    9573       2    9549    9564
    9552       2    9549    9564    9573       2    9549    9567    9576       2
    9543    9528    9549       2    9531    9552    9564       2    9528    9513
    9531       2    9528    9549    9564       2    9528    9549    9567       2
    9525    9543    9528       2    9522    9510    9525       2    9516    9534
    9522       2    9513    9528    9543       2    9513    9528    9549       2
    9513    9531    9552       2    9510    9504    9513       2    9510    9522
    9534       2    9510    9525    9543       2    9507    9504    9510       2
    9507    9504    9513       2    9507    9516    9534       2    9504    9507
    9516       2    9504    9510    9522       2    9504    9510    9525       2
    9504    9513    9528       2    9504    9513    9531       2    9699    9708
    9702       2    9693    9702    9708       2    9690    9681    9693       2
    9690    9699    9708       2    9684    9690    9699       2    9681    9690
    9684       2    9681    9690    9699       2    9681    9693    9702       2
    9675    9684    9690       2    9672    9657    9675       2    9672    9681
    9690       2    9672    9681    9693       2    9660    9672    9681       2
    9657    9672    9660       2    9657    9672    9681       2    9657    9675
    9684       2    9651    9636    9657       2    9639    9660    9672       2
    9636    9621    9639       2    9636    9657    9672       2    9636    9657
    9675       2    9633    9651    9636       2    9630    9618    9633       2
    9624    9642    9630       2    9621    9636    9651       2    9621    9636
    9657       2    9621    9639    9660       2    9618    9612    9621       2
    9618    9630    9642       2    9618    9633    9651       2    9615    9612
    9618       2    9615    9612    9621       2    9615    9624    9642       2
    9612    9615    9624       2    9612    9618    9630       2    9612    9618
    9633       2    9612    9621    9636       2    9612    9621    9639       2
    9807    9816    9810       2    9801    9810    9816       2    9798    9789
    9801       2    9798    9807    9816       2    9792    9798    9807       2
    9789    9798    9792       2    9789    9798    9807       2    9789    9801
    9810       2    9783    9792    9798       2    9780    9765    9783       2
    9780    9789    9798       2    9780    9789    9801       2    9768    9780
    9789       2    9765    9780    9768       2    9765    9780    9789       2
    9765    9783    9792       2    9759    9744    9765       2    9747    9768
    9780       2    9744    9729    9747       2    9744    9765    9780       2
    9744    9765    9783       2    9741    9759    9744       2    9738    9726
    9741       2    9732    9750    9738       2    9729    9744    9759       2
    9729    9744    9765       2    9729    9747    9768       2    9726    9720
    9729       2    9726    9738    9750       2    9726    9741    9759       2
    9723    9720    9726       2    9723    9720    9729       2    9723    9732
    9750       2    9720    9723    9732       2    9720    9726    9738       2
    9720    9726    9741       2    9720    9729    9744       2    9720    9729
    9747       2    9915    9924    9918       2    9909    9918    9924       2
    9906    9897    9909       2    9906    9915    9924       2    9900    9906
    9915       2    9897    9906    9900       2    9897    9906    9915       2
    9897    9909    9918       2    9891    9900    9906       2    9888    9873
    9891       2    9888    9897    9906       2    9888    9897    9909       2
    9876    9888    9897       2    9873    9888    9876       2    9873    9888
    9897       2    9873    9891    9900       2    9867    9852    9873       2
    9855    9876    9888       2    9852    9837    9855       2    9852    9873
    9888       2    9852    9873    9891       2    9849    9867    9852       2
    9846    9834    9849       2    9840    9858    9846       2    9837    9852
    9867       2    9837    9852    9873       2    9837    9855    9876       2
    9834    9828    9837       2    9834    9846    9858       2    9834    9849
    9867       2    9831    9828    9834       2    9831    9828    9837       2
    9831    9840    9858       2    9828    9831    9840       2    9828    9834
    9846       2    9828    9834    9849       2    9828    9837    9852       2
    9828    9837    9855       2   10023   10032   10026       2   10017   10026
   10032       2   10014   10005   10017       2   10014   10023   10032       2
   10008   10014   10023       2   10005   10014   10008       2   10005   10014
   10023       2   10005   10017   10026       2    9999   10008   10014       2
    9996    9981    9999       2    9996   10005   10014       2    9996   10005
   10017       2    9984    9996   10005       2    9981    9996    9984       2
    9981    9996   10005       2    9981    9999   10008       2    9975    9960
    9981       2    9963    9984    9996       2    9960    9945    9963       2
    9960    9981    9996       2    9960    9981    9999       2    9957    9975
    9960       2    9954    9942    9957       2    9948    9966    9954       2
    9945    9960    9975       2    9945    9960    9981       2    9945    9963
    9984       2    9942    9936    9945       2    9942    9954    9966       2
    9942    9957    9975       2    9939    9936    9942       2    9939    9936
    9945       2    9939    9948    9966       2    9936    9939    9948       2
    9936    9942    9954       2    9936    9942    9957       2    9936    9945
    9960       2    9936    9945    9963       2   10131   10140   10134       2
   10125   10134   10140       2   10122   10113   10125       2   10122   10131
   10140       2   10116   10122   10131       2   10113   10122   10116       2
   10113   10122   10131       2   10113   10125   10134       2   10107   10116
   10122       2   10104   10089   10107       2   10104   10113   10122       2
   10104   10113   10125       2   10092   10104   10113       2   10089   10104
   10092       2   10089   10104   10113       2   10089   10107   10116       2
   10083   10068   10089       2   10071   10092   10104       2   10068   10053
   10071       2   10068   10089   10104       2   10068   10089   10107       2
   10065   10083   10068       2   10062   10050   10065       2   10056   10074
   10062       2   10053   10068   10083       2   10053   10068   10089       2
   10053   10071   10092       2   10050   10044   10053       2   10050   10062
   10074       2   10050   10065   10083       2   10047   10044   10050       2
   10047   10044   10053       2   10047   10056   10074       2   10044   10047
   10056       2   10044   10050   10062       2   10044   10050   10065       2
   10044   10053   10068       2   10044   10053   10071       2   10239   10248
   10242       2   10233   10242   10248       2   10230   10221   10233       2
   10230   10239   10248       2   10224   10230   10239       2   10221   10230
   10224       2   10221   10230   10239       2   10221   10233   10242       2
   10215   10224   10230       2   10212   10197   10215       2   10212   10221
   10230       2   10212   10221   10233       2   10200   10212   10221       2
   10197   10212   10200       2   10197   10212   10221       2   10197   10215
   10224       2   10191   10176   10197       2   10179   10200   10212       2
   10176   10161   10179       2   10176   10197   10212       2   10176   10197
   10215       2   10173   10191   10176       2   10170   10158   10173       2
   10164   10182   10170       2   10161   10176   10191       2   10161   10176
   10197       2   10161   10179   10200       2   10158   10152   10161       2
   10158   10170   10182       2   10158   10173   10191       2   10155   10152
   10158       2   10155   10152   10161       2   10155   10164   10182       2
   10152   10155   10164       2   10152   10158   10170       2   10152   10158
   10173       2   10152   10161   10176       2   10152   10161   10179       2
   10347   10356   10350       2   10341   10350   10356       2   10338   10329
   10341       2   10338   10347   10356       2   10332   10338   10347       2
   10329   10338   10332       2   10329   10338   10347       2   10329   10341
   10350       2   10323   10332   10338       2   10320   10305   10323       2
   10320   10329   10338       2   10320   10329   10341       2   10308   10320
   10329       2   10305   10320   10308       2   10305   10320   10329       2
   10305   10323   10332       2   10299   10284   10305       2   10287   10308
   10320       2   10284   10269   10287       2   10284   10305   10320       2
   10284   10305   10323       2   10281   10299   10284       2   10278   10266
   10281       2   10272   10290   10278       2   10269   10284   10299       2
   10269   10284   10305       2   10269   10287   10308       2   10266   10260
   10269       2   10266   10278   10290       2   10266   10281   10299       2
   10263   10260   10266       2   10263   10260   10269       2   10263   10272
   10290       2   10260   10263   10272       2   10260   10266   10278       2
   10260   10266   10281       2   10260   10269   10284       2   10260   10269
   10287       2   10455   10464   10458       2   10449   10458   10464       2
   10446   10437   10449       2   10446   10455   10464       2   10440   10446
   10455       2   10437   10446   10440       2   10437   10446   10455       2
   10437   10449   10458       2   10431   10440   10446       2   10428   10413
   10431       2   10428   10437   10446       2   10428   10437   10449       2
   10416   10428   10437       2   10413   10428   10416       2   10413   10428
   10437       2   10413   10431   10440       2   10407   10392   10413       2
   10395   10416   10428       2   10392   10377   10395       2   10392   10413
   10428       2   10392   10413   10431       2   10389   10407   10392       2
   10386   10374   10389       2   10380   10398   10386       2   10377   10392
   10407       2   10377   10392   10413       2   10377   10395   10416       2
   10374   10368   10377       2   10374   10386   10398       2   10374   10389
   10407       2   10371   10368   10374       2   10371   10368   10377       2
   10371   10380   10398       2   10368   10371   10380       2   10368   10374
   10386       2   10368   10374   10389       2   10368   10377   10392       2
   10368   10377   10395       2   10563   10572   10566       2   10557   10566
   10572       2   10554   10545   10557       2   10554   10563   10572       2
   10548   10554   10563       2   10545   10554   10548       2   10545   10554
   10563       2   10545   10557   10566       2   10539   10548   10554       2
   10536   10521   10539       2   10536   10545   10554       2   10536   10545
   10557       2   10524   10536   10545       2   10521   10536   10524       2
   10521   10536   10545       2   10521   10539   10548       2   10515   10500
   10521       2   10503   10524   10536       2   10500   10485   10503       2
   10500   10521   10536       2   10500   10521   10539       2   10497   10515
   10500       2   10494   10482   10497       2   10488   10506   10494       2
   10485   10500   10515       2   10485   10500   10521       2   10485   10503
   10524       2   10482   10476   10485       2   10482   10494   10506       2
   10482   10497   10515       2   10479   10476   10482       2   10479   10476
   10485       2   10479   10488   10506       2   10476   10479   10488       2
   10476   10482   10494       2   10476   10482   10497       2   10476   10485
   10500       2   10476   10485   10503       2   10671   10680   10674       2
   10665   10674   10680       2   10662   10653   10665       2   10662   10671
   10680       2   10656   10662   10671       2   10653   10662   10656       2
   10653   10662   10671       2   10653   10665   10674       2   10647   10656
   10662       2   10644   10629   10647       2   10644   10653   10662       2
   10644   10653   10665       2   10632   10644   10653       2   10629   10644
   10632       2   10629   10644   10653       2   10629   10647   10656       2
   10623   10608   10629       2   10611   10632   10644       2   10608   10593
   10611       2   10608   10629   10644       2   10608   10629   10647       2
   10605   10623   10608       2   10602   10590   10605       2   10596   10614
   10602       2   10593   10608   10623       2   10593   10608   10629       2
   10593   10611   10632       2   10590   10584   10593       2   10590   10602
   10614       2   10590   10605   10623       2   10587   10584   10590       2
   10587   10584   10593       2   10587   10596   10614       2   10584   10587
   10596       2   10584   10590   10602       2   10584   10590   10605       2
   10584   10593   10608       2   10584   10593   10611       2   10779   10788
   10782       2   10773   10782   10788       2   10770   10761   10773       2
   10770   10779   10788       2   10764   10770   10779       2   10761   10770
   10764       2   10761   10770   10779       2   10761   10773   10782       2
   10755   10764   10770       2   10752   10737   10755       2   10752   10761
   10770       2   10752   10761   10773       2   10740   10752   10761       2
   10737   10752   10740       2   10737   10752   10761       2   10737   10755
   10764       2   10731   10716   10737       2   10719   10740   10752       2
   10716   10701   10719       2   10716   10737   10752       2   10716   10737
   10755       2   10713   10731   10716       2   10710   10698   10713       2
   10704   10722   10710       2   10701   10716   10731       2   10701   10716
   10737       2   10701   10719   10740       2   10698   10692   10701       2
   10698   10710   10722       2   10698   10713   10731       2   10695   10692
   10698       2   10695   10692   10701       2   10695   10704   10722       2
   10692   10695   10704       2   10692   10698   10710       2   10692   10698
   10713       2   10692   10701   10716       2   10692   10701   10719       2
   10887   10896   10890       2   10881   10890   10896       2   10878   10869
   10881       2   10878   10887   10896       2   10872   10878   10887       2
   10869   10878   10872       2   10869   10878   10887       2   10869   10881
   10890       2   10863   10872   10878       2   10860   10845   10863       2
   10860   10869   10878       2   10860   10869   10881       2   10848   10860
   10869       2   10845   10860   10848       2   10845   10860   10869       2
   10845   10863   10872       2   10839   10824   10845       2   10827   10848
   10860       2   10824   10809   10827       2   10824   10845   10860       2
   10824   10845   10863       2   10821   10839   10824       2   10818   10806
   10821       2   10812   10830   10818       2   10809   10824   10839       2
   10809   10824   10845       2   10809   10827   10848       2   10806   10800
   10809       2   10806   10818   10830       2   10806   10821   10839       2
   10803   10800   10806       2   10803   10800   10809       2   10803   10812
   10830       2   10800   10803   10812       2   10800   10806   10818       2
   10800   10806   10821       2   10800   10809   10824       2   10800   10809
   10827       2   10995   11004   10998       2   10989   10998   11004       2
   10986   10977   10989       2   10986   10995   11004       2   10980   10986
   10995       2   10977   10986   10980       2   10977   10986   10995       2
   10977   10989   10998       2   10971   10980   10986       2   10968   10953
   10971       2   10968   10977   10986       2   10968   10977   10989       2
   10956   10968   10977       2   10953   10968   10956       2   10953   10968
   10977       2   10953   10971   10980       2   10947   10932   10953       2
   10935   10956   10968       2   10932   10917   10935       2   10932   10953
   10968       2   10932   10953   10971       2   10929   10947   10932       2
   10926   10914   10929       2   10920   10938   10926       2   10917   10932
   10947       2   10917   10932   10953       2   10917   10935   10956       2
   10914   10908   10917       2   10914   10926   10938       2   10914   10929
   10947       2   10911   10908   10914       2   10911   10908   10917       2
   10911   10920   10938       2   10908   10911   10920       2   10908   10914
   10926       2   10908   10914   10929       2   10908   10917   10932       2
   10908   10917   10935       2   11103   11112   11106       2   11097   11106
   11112       2   11094   11085   11097       2   11094   11103   11112       2
   11088   11094   11103       2   11085   11094   11088       2   11085   11094
   11103       2   11085   11097   11106       2   11079   11088   11094       2
   11076   11061   11079       2   11076   11085   11094       2   11076   11085
   11097       2   11064   11076   11085       2   11061   11076   11064       2
   11061   11076   11085       2   11061   11079   11088       2   11055   11040
   11061       2   11043   11064   11076       2   11040   11025   11043       2
   11040   11061   11076       2   11040   11061   11079       2   11037   11055
   11040       2   11034   11022   11037       2   11028   11046   11034       2
   11025   11040   11055       2   11025   11040   11061       2   11025   11043
   11064       2   11022   11016   11025       2   11022   11034   11046       2
   11022   11037   11055       2   11019   11016   11022       2   11019   11016
   11025       2   11019   11028   11046       2   11016   11019   11028       2
   11016   11022   11034       2   11016   11022   11037       2   11016   11025
   11040       2   11016   11025   11043       2   11211   11220   11214       2
   11205   11214   11220       2   11202   11193   11205       2   11202   11211
   11220       2   11196   11202   11211       2   11193   11202   11196       2
   11193   11202   11211       2   11193   11205   11214       2   11187   11196
   11202       2   11184   11169   11187       2   11184   11193   11202       2
   11184   11193   11205       2   11172   11184   11193       2   11169   11184
   11172       2   11169   11184   11193       2   11169   11187   11196       2
   11163   11148   11169       2   11151   11172   11184       2   11148   11133
   11151       2   11148   11169   11184       2   11148   11169   11187       2
   11145   11163   11148       2   11142   11130   11145       2   11136   11154
   11142       2   11133   11148   11163       2   11133   11148   11169       2
   11133   11151   11172       2   11130   11124   11133       2   11130   11142
   11154       2   11130   11145   11163       2   11127   11124   11130       2
   11127   11124   11133       2   11127   11136   11154       2   11124   11127
   11136       2   11124   11130   11142       2   11124   11130   11145       2
   11124   11133   11148       2   11124   11133   11151       2   11319   11328
   11322       2   11313   11322   11328       2   11310   11301   11313       2
   11310   11319   11328       2   11304   11310   11319       2   11301   11310
   11304       2   11301   11310   11319       2   11301   11313   11322       2
   11295   11304   11310       2   11292   11277   11295       2   11292   11301
   11310       2   11292   11301   11313       2   11280   11292   11301       2
   11277   11292   11280       2   11277   11292   11301       2   11277   11295
   11304       2   11271   11256   11277       2   11259   11280   11292       2
   11256   11241   11259       2   11256   11277   11292       2   11256   11277
   11295       2   11253   11271   11256       2   11250   11238   11253       2
   11244   11262   11250       2   11241   11256   11271       2   11241   11256
   11277       2   11241   11259   11280       2   11238   11232   11241       2
   11238   11250   11262       2   11238   11253   11271       2   11235   11232
   11238       2   11235   11232   11241       2   11235   11244   11262       2
   11232   11235   11244       2   11232   11238   11250       2   11232   11238
   11253       2   11232   11241   11256       2   11232   11241   11259       2
   11427   11436   11430       2   11421   11430   11436       2   11418   11409
   11421       2   11418   11427   11436       2   11412   11418   11427       2
   11409   11418   11412       2   11409   11418   11427       2   11409   11421
   11430       2   11403   11412   11418       2   11400   11385   11403       2
   11400   11409   11418       2   11400   11409   11421       2   11388   11400
   11409       2   11385   11400   11388       2   11385   11400   11409       2
   11385   11403   11412       2   11379   11364   11385       2   11367   11388
   11400       2   11364   11349   11367       2   11364   11385   11400       2
   11364   11385   11403       2   11361   11379   11364       2   11358   11346
   11361       2   11352   11370   11358       2   11349   11364   11379       2
   11349   11364   11385       2   11349   11367   11388       2   11346   11340
   11349       2   11346   11358   11370       2   11346   11361   11379       2
   11343   11340   11346       2   11343   11340   11349       2   11343   11352
   11370       2   11340   11343   11352       2   11340   11346   11358       2
   11340   11346   11361       2   11340   11349   11364       2   11340   11349
   11367       2   11535   11544   11538       2   11529   11538   11544       2
   11526   11517   11529       2   11526   11535   11544       2   11520   11526
   11535       2   11517   11526   11520       2   11517   11526   11535       2
   11517   11529   11538       2   11511   11520   11526       2   11508   11493
   11511       2   11508   11517   11526       2   11508   11517   11529       2
   11496   11508   11517       2   11493   11508   11496       2   11493   11508
   11517       2   11493   11511   11520       2   11487   11472   11493       2
   11475   11496   11508       2   11472   11457   11475       2   11472   11493
   11508       2   11472   11493   11511       2   11469   11487   11472       2
   11466   11454   11469       2   11460   11478   11466       2   11457   11472
   11487       2   11457   11472   11493       2   11457   11475   11496       2
   11454   11448   11457       2   11454   11466   11478       2   11454   11469
   11487       2   11451   11448   11454       2   11451   11448   11457       2
   11451   11460   11478       2   11448   11451   11460       2   11448   11454
   11466       2   11448   11454   11469       2   11448   11457   11472       2
   11448   11457   11475       2   11643   11652   11646       2   11637   11646
   11652       2   11634   11625   11637       2   11634   11643   11652       2
   11628   11634   11643       2   11625   11634   11628       2   11625   11634
   11643       2   11625   11637   11646       2   11619   11628   11634       2
   11616   11601   11619       2   11616   11625   11634       2   11616   11625
   11637       2   11604   11616   11625       2   11601   11616   11604       2
   11601   11616   11625       2   11601   11619   11628       2   11595   11580
   11601       2   11583   11604   11616       2   11580   11565   11583       2
   11580   11601   11616       2   11580   11601   11619       2   11577   11595
   11580       2   11574   11562   11577       2   11568   11586   11574       2
   11565   11580   11595       2   11565   11580   11601       2   11565   11583
   11604       2   11562   11556   11565       2   11562   11574   11586       2
   11562   11577   11595       2   11559   11556   11562       2   11559   11556
   11565       2   11559   11568   11586       2   11556   11559   11568       2
   11556   11562   11574       2   11556   11562   11577       2   11556   11565
   11580       2   11556   11565   11583       2   11751   11760   11754       2
   11745   11754   11760       2   11742   11733   11745       2   11742   11751
   11760       2   11736   11742   11751       2   11733   11742   11736       2
   11733   11742   11751       2   11733   11745   11754       2   11727   11736
   11742       2   11724   11709   11727       2   11724   11733   11742       2
   11724   11733   11745       2   11712   11724   11733       2   11709   11724
   11712       2   11709   11724   11733       2   11709   11727   11736       2
   11703   11688   11709       2   11691   11712   11724       2   11688   11673
   11691       2   11688   11709   11724       2   11688   11709   11727       2
   11685   11703   11688       2   11682   11670   11685       2   11676   11694
   11682       2   11673   11688   11703       2   11673   11688   11709       2
   11673   11691   11712       2   11670   11664   11673       2   11670   11682
   11694       2   11670   11685   11703       2   11667   11664   11670       2
   11667   11664   11673       2   11667   11676   11694       2   11664   11667
   11676       2   11664   11670   11682       2   11664   11670   11685       2
   11664   11673   11688       2   11664   11673   11691       2   11859   11868
   11862       2   11853   11862   11868       2   11850   11841   11853       2
   11850   11859   11868       2   11844   11850   11859       2   11841   11850
   11844       2   11841   11850   11859       2   11841   11853   11862       2
   11835   11844   11850       2   11832   11817   11835       2   11832   11841
   11850       2   11832   11841   11853       2   11820   11832   11841       2
   11817   11832   11820       2   11817   11832   11841       2   11817   11835
   11844       2   11811   11796   11817       2   11799   11820   11832       2
   11796   11781   11799       2   11796   11817   11832       2   11796   11817
   11835       2   11793   11811   11796       2   11790   11778   11793       2
   11784   11802   11790       2   11781   11796   11811       2   11781   11796
   11817       2   11781   11799   11820       2   11778   11772   11781       2
   11778   11790   11802       2   11778   11793   11811       2   11775   11772
   11778       2   11775   11772   11781       2   11775   11784   11802       2
   11772   11775   11784       2   11772   11778   11790       2   11772   11778
   11793       2   11772   11781   11796       2   11772   11781   11799       2
   11967   11976   11970       2   11961   11970   11976       2   11958   11949
   11961       2   11958   11967   11976       2   11952   11958   11967       2
   11949   11958   11952       2   11949   11958   11967       2   11949   11961
   11970       2   11943   11952   11958       2   11940   11925   11943       2
   11940   11949   11958       2   11940   11949   11961       2   11928   11940
   11949       2   11925   11940   11928       2   11925   11940   11949       2
   11925   11943   11952       2   11919   11904   11925       2   11907   11928
   11940       2   11904   11889   11907       2   11904   11925   11940       2
   11904   11925   11943       2   11901   11919   11904       2   11898   11886
   11901       2   11892   11910   11898       2   11889   11904   11919       2
   11889   11904   11925       2   11889   11907   11928       2   11886   11880
   11889       2   11886   11898   11910       2   11886   11901   11919       2
   11883   11880   11886       2   11883   11880   11889       2   11883   11892
   11910       2   11880   11883   11892       2   11880   11886   11898       2
   11880   11886   11901       2   11880   11889   11904       2   11880   11889
   11907       2   12075   12084   12078       2   12069   12078   12084       2
   12066   12057   12069       2   12066   12075   12084       2   12060   12066
   12075       2   12057   12066   12060       2   12057   12066   12075       2
   12057   12069   12078       2   12051   12060   12066       2   12048   12033
   12051       2   12048   12057   12066       2   12048   12057   12069       2
   12036   12048   12057       2   12033   12048   12036       2   12033   12048
   12057       2   12033   12051   12060       2   12027   12012   12033       2
   12015   12036   12048       2   12012   11997   12015       2   12012   12033
   12048       2   12012   12033   12051       2   12009   12027   12012       2
   12006   11994   12009       2   12000   12018   12006       2   11997   12012
   12027       2   11997   12012   12033       2   11997   12015   12036       2
   11994   11988   11997       2   11994   12006   12018       2   11994   12009
   12027       2   11991   11988   11994       2   11991   11988   11997       2
   11991   12000   12018       2   11988   11991   12000       2   11988   11994
   12006       2   11988   11994   12009       2   11988   11997   12012       2
   11988   11997   12015       2   12183   12192   12186       2   12177   12186
   12192       2   12174   12165   12177       2   12174   12183   12192       2
   12168   12174   12183       2   12165   12174   12168       2   12165   12174
   12183       2   12165   12177   12186       2   12159   12168   12174       2
   12156   12141   12159       2   12156   12165   12174       2   12156   12165
   12177       2   12144   12156   12165       2   12141   12156   12144       2
   12141   12156   12165       2   12141   12159   12168       2   12135   12120
   12141       2   12123   12144   12156       2   12120   12105   12123       2
   12120   12141   12156       2   12120   12141   12159       2   12117   12135
   12120       2   12114   12102   12117       2   12108   12126   12114       2
   12105   12120   12135       2   12105   12120   12141       2   12105   12123
   12144       2   12102   12096   12105       2   12102   12114   12126       2
   12102   12117   12135       2   12099   12096   12102       2   12099   12096
   12105       2   12099   12108   12126       2   12096   12099   12108       2
   12096   12102   12114       2   12096   12102   12117       2   12096   12105
   12120       2   12096   12105   12123       2   12291   12300   12294       2
   12285   12294   12300       2   12282   12273   12285       2   12282   12291
   12300       2   12276   12282   12291       2   12273   12282   12276       2
   12273   12282   12291       2   12273   12285   12294       2   12267   12276
   12282       2   12264   12249   12267       2   12264   12273   12282       2
   12264   12273   12285       2   12252   12264   12273       2   12249   12264
   12252       2   12249   12264   12273       2   12249   12267   12276       2
   12243   12228   12249       2   12231   12252   12264       2   12228   12213
   12231       2   12228   12249   12264       2   12228   12249   12267       2
   12225   12243   12228       2   12222   12210   12225       2   12216   12234
   12222       2   12213   12228   12243       2   12213   12228   12249       2
   12213   12231   12252       2   12210   12204   12213       2   12210   12222
   12234       2   12210   12225   12243       2   12207   12204   12210       2
   12207   12204   12213       2   12207   12216   12234       2   12204   12207
   12216       2   12204   12210   12222       2   12204   12210   12225       2
   12204   12213   12228       2   12204   12213   12231       2   12399   12408
   12402       2   12393   12402   12408       2   12390   12381   12393       2
   12390   12399   12408       2   12384   12390   12399       2   12381   12390
   12384       2   12381   12390   12399       2   12381   12393   12402       2
   12375   12384   12390       2   12372   12357   12375       2   12372   12381
   12390       2   12372   12381   12393       2   12360   12372   12381       2
   12357   12372   12360       2   12357   12372   12381       2   12357   12375
   12384       2   12351   12336   12357       2   12339   12360   12372       2
   12336   12321   12339       2   12336   12357   12372       2   12336   12357
   12375       2   12333   12351   12336       2   12330   12318   12333       2
   12324   12342   12330       2   12321   12336   12351       2   12321   12336
   12357       2   12321   12339   12360       2   12318   12312   12321       2
   12318   12330   12342       2   12318   12333   12351       2   12315   12312
   12318       2   12315   12312   12321       2   12315   12324   12342       2
   12312   12315   12324       2   12312   12318   12330       2   12312   12318
   12333       2   12312   12321   12336       2   12312   12321   12339       2
   12507   12516   12510       2   12501   12510   12516       2   12498   12489
   12501       2   12498   12507   12516       2   12492   12498   12507       2
   12489   12498   12492       2   12489   12498   12507       2   12489   12501
   12510       2   12483   12492   12498       2   12480   12465   12483       2
   12480   12489   12498       2   12480   12489   12501       2   12468   12480
   12489       2   12465   12480   12468       2   12465   12480   12489       2
   12465   12483   12492       2   12459   12444   12465       2   12447   12468
   12480       2   12444   12429   12447       2   12444   12465   12480       2
   12444   12465   12483       2   12441   12459   12444       2   12438   12426
   12441       2   12432   12450   12438       2   12429   12444   12459       2
   12429   12444   12465       2   12429   12447   12468       2   12426   12420
   12429       2   12426   12438   12450       2   12426   12441   12459       2
   12423   12420   12426       2   12423   12420   12429       2   12423   12432
   12450       2   12420   12423   12432       2   12420   12426   12438       2
   12420   12426   12441       2   12420   12429   12444       2   12420   12429
   12447       2   12615   12624   12618       2   12609   12618   12624       2
   12606   12597   12609       2   12606   12615   12624       2   12600   12606
   12615       2   12597   12606   12600       2   12597   12606   12615       2
   12597   12609   12618       2   12591   12600   12606       2   12588   12573
   12591       2   12588   12597   12606       2   12588   12597   12609       2
   12576   12588   12597       2   12573   12588   12576       2   12573   12588
   12597       2   12573   12591   12600       2   12567   12552   12573       2
   12555   12576   12588       2   12552   12537   12555       2   12552   12573
   12588       2   12552   12573   12591       2   12549   12567   12552       2
   12546   12534   12549       2   12540   12558   12546       2   12537   12552
   12567       2   12537   12552   12573       2   12537   12555   12576       2
   12534   12528   12537       2   12534   12546   12558       2   12534   12549
   12567       2   12531   12528   12534       2   12531   12528   12537       2
   12531   12540   12558       2   12528   12531   12540       2   12528   12534
   12546       2   12528   12534   12549       2   12528   12537   12552       2
   12528   12537   12555       2   12723   12732   12726       2   12717   12726
   12732       2   12714   12705   12717       2   12714   12723   12732       2
   12708   12714   12723       2   12705   12714   12708       2   12705   12714
   12723       2   12705   12717   12726       2   12699   12708   12714       2
   12696   12681   12699       2   12696   12705   12714       2   12696   12705
   12717       2   12684   12696   12705       2   12681   12696   12684       2
   12681   12696   12705       2   12681   12699   12708       2   12675   12660
   12681       2   12663   12684   12696       2   12660   12645   12663       2
   12660   12681   12696       2   12660   12681   12699       2   12657   12675
   12660       2   12654   12642   12657       2   12648   12666   12654       2
   12645   12660   12675       2   12645   12660   12681       2   12645   12663
   12684       2   12642   12636   12645       2   12642   12654   12666       2
   12642   12657   12675       2   12639   12636   12642       2   12639   12636
   12645       2   12639   12648   12666       2   12636   12639   12648       2
   12636   12642   12654       2   12636   12642   12657       2   12636   12645
   12660       2   12636   12645   12663       2   12831   12840   12834       2
   12825   12834   12840       2   12822   12813   12825       2   12822   12831
   12840       2   12816   12822   12831       2   12813   12822   12816       2
   12813   12822   12831       2   12813   12825   12834       2   12807   12816
   12822       2   12804   12789   12807       2   12804   12813   12822       2
   12804   12813   12825       2   12792   12804   12813       2   12789   12804
   12792       2   12789   12804   12813       2   12789   12807   12816       2
   12783   12768   12789       2   12771   12792   12804       2   12768   12753
   12771       2   12768   12789   12804       2   12768   12789   12807       2
   12765   12783   12768       2   12762   12750   12765       2   12756   12774
   12762       2   12753   12768   12783       2   12753   12768   12789       2
   12753   12771   12792       2   12750   12744   12753       2   12750   12762
   12774       2   12750   12765   12783       2   12747   12744   12750       2
   12747   12744   12753       2   12747   12756   12774       2   12744   12747
   12756       2   12744   12750   12762       2   12744   12750   12765       2
   12744   12753   12768       2   12744   12753   12771       2   12939   12948
   12942       2   12933   12942   12948       2   12930   12921   12933       2
   12930   12939   12948       2   12924   12930   12939       2   12921   12930
   12924       2   12921   12930   12939       2   12921   12933   12942       2
   12915   12924   12930       2   12912   12897   12915       2   12912   12921
   12930       2   12912   12921   12933       2   12900   12912   12921       2
   12897   12912   12900       2   12897   12912   12921       2   12897   12915
   12924       2   12891   12876   12897       2   12879   12900   12912       2
   12876   12861   12879       2   12876   12897   12912       2   12876   12897
   12915       2   12873   12891   12876       2   12870   12858   12873       2
   12864   12882   12870       2   12861   12876   12891       2   12861   12876
   12897       2   12861   12879   12900       2   12858   12852   12861       2
   12858   12870   12882       2   12858   12873   12891       2   12855   12852
   12858       2   12855   12852   12861       2   12855   12864   12882       2
   12852   12855   12864       2   12852   12858   12870       2   12852   12858
   12873       2   12852   12861   12876       2   12852   12861   12879       2
   13047   13056   13050       2   13041   13050   13056       2   13038   13029
   13041       2   13038   13047   13056       2   13032   13038   13047       2
   13029   13038   13032       2   13029   13038   13047       2   13029   13041
   13050       2   13023   13032   13038       2   13020   13005   13023       2
   13020   13029   13038       2   13020   13029   13041       2   13008   13020
   13029       2   13005   13020   13008       2   13005   13020   13029       2
   13005   13023   13032       2   12999   12984   13005       2   12987   13008
   13020       2   12984   12969   12987       2   12984   13005   13020       2
   12984   13005   13023       2   12981   12999   12984       2   12978   12966
   12981       2   12972   12990   12978       2   12969   12984   12999       2
   12969   12984   13005       2   12969   12987   13008       2   12966   12960
   12969       2   12966   12978   12990       2   12966   12981   12999       2
   12963   12960   12966       2   12963   12960   12969       2   12963   12972
   12990       2   12960   12963   12972       2   12960   12966   12978       2
   12960   12966   12981       2   12960   12969   12984       2   12960   12969
   12987       2   13155   13164   13158       2   13149   13158   13164       2
   13146   13137   13149       2   13146   13155   13164       2   13140   13146
   13155       2   13137   13146   13140       2   13137   13146   13155       2
   13137   13149   13158       2   13131   13140   13146       2   13128   13113
   13131       2   13128   13137   13146       2   13128   13137   13149       2
   13116   13128   13137       2   13113   13128   13116       2   13113   13128
   13137       2   13113   13131   13140       2   13107   13092   13113       2
   13095   13116   13128       2   13092   13077   13095       2   13092   13113
   13128       2   13092   13113   13131       2   13089   13107   13092       2
   13086   13074   13089       2   13080   13098   13086       2   13077   13092
   13107       2   13077   13092   13113       2   13077   13095   13116       2
   13074   13068   13077       2   13074   13086   13098       2   13074   13089
   13107       2   13071   13068   13074       2   13071   13068   13077       2
   13071   13080   13098       2   13068   13071   13080       2   13068   13074
   13086       2   13068   13074   13089       2   13068   13077   13092       2
   13068   13077   13095       2   13263   13272   13266       2   13257   13266
   13272       2   13254   13245   13257       2   13254   13263   13272       2
   13248   13254   13263       2   13245   13254   13248       2   13245   13254
   13263       2   13245   13257   13266       2   13239   13248   13254       2
   13236   13221   13239       2   13236   13245   13254       2   13236   13245
   13257       2   13224   13236   13245       2   13221   13236   13224       2
   13221   13236   13245       2   13221   13239   13248       2   13215   13200
   13221       2   13203   13224   13236       2   13200   13185   13203       2
   13200   13221   13236       2   13200   13221   13239       2   13197   13215
   13200       2   13194   13182   13197       2   13188   13206   13194       2
   13185   13200   13215       2   13185   13200   13221       2   13185   13203
   13224       2   13182   13176   13185       2   13182   13194   13206       2
   13182   13197   13215       2   13179   13176   13182       2   13179   13176
   13185       2   13179   13188   13206       2   13176   13179   13188       2
   13176   13182   13194       2   13176   13182   13197       2   13176   13185
   13200       2   13176   13185   13203       2   13371   13380   13374       2
   13365   13374   13380       2   13362   13353   13365       2   13362   13371
   13380       2   13356   13362   13371       2   13353   13362   13356       2
   13353   13362   13371       2   13353   13365   13374       2   13347   13356
   13362       2   13344   13329   13347       2   13344   13353   13362       2
   13344   13353   13365       2   13332   13344   13353       2   13329   13344
   13332       2   13329   13344   13353       2   13329   13347   13356       2
   13323   13308   13329       2   13311   13332   13344       2   13308   13293
   13311       2   13308   13329   13344       2   13308   13329   13347       2
   13305   13323   13308       2   13302   13290   13305       2   13296   13314
   13302       2   13293   13308   13323       2   13293   13308   13329       2
   13293   13311   13332       2   13290   13284   13293       2   13290   13302
   13314       2   13290   13305   13323       2   13287   13284   13290       2
   13287   13284   13293       2   13287   13296   13314       2   13284   13287
   13296       2   13284   13290   13302       2   13284   13290   13305       2
   13284   13293   13308       2   13284   13293   13311       2   13479   13488
   13482       2   13473   13482   13488       2   13470   13461   13473       2
   13470   13479   13488       2   13464   13470   13479       2   13461   13470
   13464       2   13461   13470   13479       2   13461   13473   13482       2
   13455   13464   13470       2   13452   13437   13455       2   13452   13461
   13470       2   13452   13461   13473       2   13440   13452   13461       2
   13437   13452   13440       2   13437   13452   13461       2   13437   13455
   13464       2   13431   13416   13437       2   13419   13440   13452       2
   13416   13401   13419       2   13416   13437   13452       2   13416   13437
   13455       2   13413   13431   13416       2   13410   13398   13413       2
   13404   13422   13410       2   13401   13416   13431       2   13401   13416
   13437       2   13401   13419   13440       2   13398   13392   13401       2
   13398   13410   13422       2   13398   13413   13431       2   13395   13392
   13398       2   13395   13392   13401       2   13395   13404   13422       2
   13392   13395   13404       2   13392   13398   13410       2   13392   13398
   13413       2   13392   13401   13416       2   13392   13401   13419       2
   13587   13596   13590       2   13581   13590   13596       2   13578   13569
   13581       2   13578   13587   13596       2   13572   13578   13587       2
   13569   13578   13572       2   13569   13578   13587       2   13569   13581
   13590       2   13563   13572   13578       2   13560   13545   13563       2
   13560   13569   13578       2   13560   13569   13581       2   13548   13560
   13569       2   13545   13560   13548       2   13545   13560   13569       2
   13545   13563   13572       2   13539   13524   13545       2   13527   13548
   13560       2   13524   13509   13527       2   13524   13545   13560       2
   13524   13545   13563       2   13521   13539   13524       2   13518   13506
   13521       2   13512   13530   13518       2   13509   13524   13539       2
   13509   13524   13545       2   13509   13527   13548       2   13506   13500
   13509       2   13506   13518   13530       2   13506   13521   13539       2
   13503   13500   13506       2   13503   13500   13509       2   13503   13512
   13530       2   13500   13503   13512       2   13500   13506   13518       2
   13500   13506   13521       2   13500   13509   13524       2   13500   13509
   13527       2   13695   13704   13698       2   13689   13698   13704       2
   13686   13677   13689       2   13686   13695   13704       2   13680   13686
   13695       2   13677   13686   13680       2   13677   13686   13695       2
   13677   13689   13698       2   13671   13680   13686       2   13668   13653
   13671       2   13668   13677   13686       2   13668   13677   13689       2
   13656   13668   13677       2   13653   13668   13656       2   13653   13668
   13677       2   13653   13671   13680       2   13647   13632   13653       2
   13635   13656   13668       2   13632   13617   13635       2   13632   13653
   13668       2   13632   13653   13671       2   13629   13647   13632       2
   13626   13614   13629       2   13620   13638   13626       2   13617   13632
   13647       2   13617   13632   13653       2   13617   13635   13656       2
   13614   13608   13617       2   13614   13626   13638       2   13614   13629
   13647       2   13611   13608   13614       2   13611   13608   13617       2
   13611   13620   13638       2   13608   13611   13620       2   13608   13614
   13626       2   13608   13614   13629       2   13608   13617   13632       2
   13608   13617   13635       2   13803   13812   13806       2   13797   13806
   13812       2   13794   13785   13797       2   13794   13803   13812       2
   13788   13794   13803       2   13785   13794   13788       2   13785   13794
   13803       2   13785   13797   13806       2   13779   13788   13794       2
   13776   13761   13779       2   13776   13785   13794       2   13776   13785
   13797       2   13764   13776   13785       2   13761   13776   13764       2
   13761   13776   13785       2   13761   13779   13788       2   13755   13740
   13761       2   13743   13764   13776       2   13740   13725   13743       2
   13740   13761   13776       2   13740   13761   13779       2   13737   13755
   13740       2   13734   13722   13737       2   13728   13746   13734       2
   13725   13740   13755       2   13725   13740   13761       2   13725   13743
   13764       2   13722   13716   13725       2   13722   13734   13746       2
   13722   13737   13755       2   13719   13716   13722       2   13719   13716
   13725       2   13719   13728   13746       2   13716   13719   13728       2
   13716   13722   13734       2   13716   13722   13737       2   13716   13725
   13740       2   13716   13725   13743       2   13911   13920   13914       2
   13905   13914   13920       2   13902   13893   13905       2   13902   13911
   13920       2   13896   13902   13911       2   13893   13902   13896       2
   13893   13902   13911       2   13893   13905   13914       2   13887   13896
   13902       2   13884   13869   13887       2   13884   13893   13902       2
   13884   13893   13905       2   13872   13884   13893       2   13869   13884
   13872       2   13869   13884   13893       2   13869   13887   13896       2
   13863   13848   13869       2   13851   13872   13884       2   13848   13833
   13851       2   13848   13869   13884       2   13848   13869   13887       2
   13845   13863   13848       2   13842   13830   13845       2   13836   13854
   13842       2   13833   13848   13863       2   13833   13848   13869       2
   13833   13851   13872       2   13830   13824   13833       2   13830   13842
   13854       2   13830   13845   13863       2   13827   13824   13830       2
   13827   13824   13833       2   13827   13836   13854       2   13824   13827
   13836       2   13824   13830   13842       2   13824   13830   13845       2
   13824   13833   13848       2   13824   13833   13851       2   14019   14028
   14022       2   14013   14022   14028       2   14010   14001   14013       2
   14010   14019   14028       2   14004   14010   14019       2   14001   14010
   14004       2   14001   14010   14019       2   14001   14013   14022       2
   13995   14004   14010       2   13992   13977   13995       2   13992   14001
   14010       2   13992   14001   14013       2   13980   13992   14001       2
   13977   13992   13980       2   13977   13992   14001       2   13977   13995
   14004       2   13971   13956   13977       2   13959   13980   13992       2
   13956   13941   13959       2   13956   13977   13992       2   13956   13977
   13995       2   13953   13971   13956       2   13950   13938   13953       2
   13944   13962   13950       2   13941   13956   13971       2   13941   13956
   13977       2   13941   13959   13980       2   13938   13932   13941       2
   13938   13950   13962       2   13938   13953   13971       2   13935   13932
   13938       2   13935   13932   13941       2   13935   13944   13962       2
   13932   13935   13944       2   13932   13938   13950       2   13932   13938
   13953       2   13932   13941   13956       2   13932   13941   13959       2
   14127   14136   14130       2   14121   14130   14136       2   14118   14109
   14121       2   14118   14127   14136       2   14112   14118   14127       2
   14109   14118   14112       2   14109   14118   14127       2   14109   14121
   14130       2   14103   14112   14118       2   14100   14085   14103       2
   14100   14109   14118       2   14100   14109   14121       2   14088   14100
   14109       2   14085   14100   14088       2   14085   14100   14109       2
   14085   14103   14112       2   14079   14064   14085       2   14067   14088
   14100       2   14064   14049   14067       2   14064   14085   14100       2
   14064   14085   14103       2   14061   14079   14064       2   14058   14046
   14061       2   14052   14070   14058       2   14049   14064   14079       2
   14049   14064   14085       2   14049   14067   14088       2   14046   14040
   14049       2   14046   14058   14070       2   14046   14061   14079       2
   14043   14040   14046       2   14043   14040   14049       2   14043   14052
   14070       2   14040   14043   14052       2   14040   14046   14058       2
   14040   14046   14061       2   14040   14049   14064       2   14040   14049
   14067       2   14235   14244   14238       2   14229   14238   14244       2
   14226   14217   14229       2   14226   14235   14244       2   14220   14226
   14235       2   14217   14226   14220       2   14217   14226   14235       2
   14217   14229   14238       2   14211   14220   14226       2   14208   14193
   14211       2   14208   14217   14226       2   14208   14217   14229       2
   14196   14208   14217       2   14193   14208   14196       2   14193   14208
   14217       2   14193   14211   14220       2   14187   14172   14193       2
   14175   14196   14208       2   14172   14157   14175       2   14172   14193
   14208       2   14172   14193   14211       2   14169   14187   14172       2
   14166   14154   14169       2   14160   14178   14166       2   14157   14172
   14187       2   14157   14172   14193       2   14157   14175   14196       2
   14154   14148   14157       2   14154   14166   14178       2   14154   14169
   14187       2   14151   14148   14154       2   14151   14148   14157       2
   14151   14160   14178       2   14148   14151   14160       2   14148   14154
   14166       2   14148   14154   14169       2   14148   14157   14172       2
   14148   14157   14175       2   14343   14352   14346       2   14337   14346
   14352       2   14334   14325   14337       2   14334   14343   14352       2
   14328   14334   14343       2   14325   14334   14328       2   14325   14334
   14343       2   14325   14337   14346       2   14319   14328   14334       2
   14316   14301   14319       2   14316   14325   14334       2   14316   14325
   14337       2   14304   14316   14325       2   14301   14316   14304       2
   14301   14316   14325       2   14301   14319   14328       2   14295   14280
   14301       2   14283   14304   14316       2   14280   14265   14283       2
   14280   14301   14316       2   14280   14301   14319       2   14277   14295
   14280       2   14274   14262   14277       2   14268   14286   14274       2
   14265   14280   14295       2   14265   14280   14301       2   14265   14283
   14304       2   14262   14256   14265       2   14262   14274   14286       2
   14262   14277   14295       2   14259   14256   14262       2   14259   14256
   14265       2   14259   14268   14286       2   14256   14259   14268       2
   14256   14262   14274       2   14256   14262   14277       2   14256   14265
   14280       2   14256   14265   14283       2   14451   14460   14454       2
   14445   14454   14460       2   14442   14433   14445       2   14442   14451
   14460       2   14436   14442   14451       2   14433   14442   14436       2
   14433   14442   14451       2   14433   14445   14454       2   14427   14436
   14442       2   14424   14409   14427       2   14424   14433   14442       2
   14424   14433   14445       2   14412   14424   14433       2   14409   14424
   14412       2   14409   14424   14433       2   14409   14427   14436       2
   14403   14388   14409       2   14391   14412   14424       2   14388   14373
   14391       2   14388   14409   14424       2   14388   14409   14427       2
   14385   14403   14388       2   14382   14370   14385       2   14376   14394
   14382       2   14373   14388   14403       2   14373   14388   14409       2
   14373   14391   14412       2   14370   14364   14373       2   14370   14382
   14394       2   14370   14385   14403       2   14367   14364   14370       2
   14367   14364   14373       2   14367   14376   14394       2   14364   14367
   14376       2   14364   14370   14382       2   14364   14370   14385       2
   14364   14373   14388       2   14364   14373   14391       2   14559   14568
   14562       2   14553   14562   14568       2   14550   14541   14553       2
   14550   14559   14568       2   14544   14550   14559       2   14541   14550
   14544       2   14541   14550   14559       2   14541   14553   14562       2
   14535   14544   14550       2   14532   14517   14535       2   14532   14541
   14550       2   14532   14541   14553       2   14520   14532   14541       2
   14517   14532   14520       2   14517   14532   14541       2   14517   14535
   14544       2   14511   14496   14517       2   14499   14520   14532       2
   14496   14481   14499       2   14496   14517   14532       2   14496   14517
   14535       2   14493   14511   14496       2   14490   14478   14493       2
   14484   14502   14490       2   14481   14496   14511       2   14481   14496
   14517       2   14481   14499   14520       2   14478   14472   14481       2
   14478   14490   14502       2   14478   14493   14511       2   14475   14472
   14478       2   14475   14472   14481       2   14475   14484   14502       2
   14472   14475   14484       2   14472   14478   14490       2   14472   14478
   14493       2   14472   14481   14496       2   14472   14481   14499       2
   14667   14676   14670       2   14661   14670   14676       2   14658   14649
   14661       2   14658   14667   14676       2   14652   14658   14667       2
   14649   14658   14652       2   14649   14658   14667       2   14649   14661
   14670       2   14643   14652   14658       2   14640   14625   14643       2
   14640   14649   14658       2   14640   14649   14661       2   14628   14640
   14649       2   14625   14640   14628       2   14625   14640   14649       2
   14625   14643   14652       2   14619   14604   14625       2   14607   14628
   14640       2   14604   14589   14607       2   14604   14625   14640       2
   14604   14625   14643       2   14601   14619   14604       2   14598   14586
   14601       2   14592   14610   14598       2   14589   14604   14619       2
   14589   14604   14625       2   14589   14607   14628       2   14586   14580
   14589       2   14586   14598   14610       2   14586   14601   14619       2
   14583   14580   14586       2   14583   14580   14589       2   14583   14592
   14610       2   14580   14583   14592       2   14580   14586   14598       2
   14580   14586   14601       2   14580   14589   14604       2   14580   14589
   14607       2   14775   14784   14778       2   14769   14778   14784       2
   14766   14757   14769       2   14766   14775   14784       2   14760   14766
   14775       2   14757   14766   14760       2   14757   14766   14775       2
   14757   14769   14778       2   14751   14760   14766       2   14748   14733
   14751       2   14748   14757   14766       2   14748   14757   14769       2
   14736   14748   14757       2   14733   14748   14736       2   14733   14748
   14757       2   14733   14751   14760       2   14727   14712   14733       2
   14715   14736   14748       2   14712   14697   14715       2   14712   14733
   14748       2   14712   14733   14751       2   14709   14727   14712       2
   14706   14694   14709       2   14700   14718   14706       2   14697   14712
   14727       2   14697   14712   14733       2   14697   14715   14736       2
   14694   14688   14697       2   14694   14706   14718       2   14694   14709
   14727       2   14691   14688   14694       2   14691   14688   14697       2
   14691   14700   14718       2   14688   14691   14700       2   14688   14694
   14706       2   14688   14694   14709       2   14688   14697   14712       2
   14688   14697   14715       2   14883   14892   14886       2   14877   14886
   14892       2   14874   14865   14877       2   14874   14883   14892       2
   14868   14874   14883       2   14865   14874   14868       2   14865   14874
   14883       2   14865   14877   14886       2   14859   14868   14874       2
   14856   14841   14859       2   14856   14865   14874       2   14856   14865
   14877       2   14844   14856   14865       2   14841   14856   14844       2
   14841   14856   14865       2   14841   14859   14868       2   14835   14820
   14841       2   14823   14844   14856       2   14820   14805   14823       2
   14820   14841   14856       2   14820   14841   14859       2   14817   14835
   14820       2   14814   14802   14817       2   14808   14826   14814       2
   14805   14820   14835       2   14805   14820   14841       2   14805   14823
   14844       2   14802   14796   14805       2   14802   14814   14826       2
   14802   14817   14835       2   14799   14796   14802       2   14799   14796
   14805       2   14799   14808   14826       2   14796   14799   14808       2
   14796   14802   14814       2   14796   14802   14817       2   14796   14805
   14820       2   14796   14805   14823       2   14991   15000   14994       2
   14985   14994   15000       2   14982   14973   14985       2   14982   14991
   15000       2   14976   14982   14991       2   14973   14982   14976       2
   14973   14982   14991       2   14973   14985   14994       2   14967   14976
   14982       2   14964   14949   14967       2   14964   14973   14982       2
   14964   14973   14985       2   14952   14964   14973       2   14949   14964
   14952       2   14949   14964   14973       2   14949   14967   14976       2
   14943   14928   14949       2   14931   14952   14964       2   14928   14913
   14931       2   14928   14949   14964       2   14928   14949   14967       2
   14925   14943   14928       2   14922   14910   14925       2   14916   14934
   14922       2   14913   14928   14943       2   14913   14928   14949       2
   14913   14931   14952       2   14910   14904   14913       2   14910   14922
   14934       2   14910   14925   14943       2   14907   14904   14910       2
   14907   14904   14913       2   14907   14916   14934       2   14904   14907
   14916       2   14904   14910   14922       2   14904   14910   14925       2
   14904   14913   14928       2   14904   14913   14931       2   15099   15108
   15102       2   15093   15102   15108       2   15090   15081   15093       2
   15090   15099   15108       2   15084   15090   15099       2   15081   15090
   15084       2   15081   15090   15099       2   15081   15093   15102       2
   15075   15084   15090       2   15072   15057   15075       2   15072   15081
   15090       2   15072   15081   15093       2   15060   15072   15081       2
   15057   15072   15060       2   15057   15072   15081       2   15057   15075
   15084       2   15051   15036   15057       2   15039   15060   15072       2
   15036   15021   15039       2   15036   15057   15072       2   15036   15057
   15075       2   15033   15051   15036       2   15030   15018   15033       2
   15024   15042   15030       2   15021   15036   15051       2   15021   15036
   15057       2   15021   15039   15060       2   15018   15012   15021       2
   15018   15030   15042       2   15018   15033   15051       2   15015   15012
   15018       2   15015   15012   15021       2   15015   15024   15042       2
   15012   15015   15024       2   15012   15018   15030       2   15012   15018
   15033       2   15012   15021   15036       2   15012   15021   15039       2
   15207   15216   15210       2   15201   15210   15216       2   15198   15189
   15201       2   15198   15207   15216       2   15192   15198   15207       2
   15189   15198   15192       2   15189   15198   15207       2   15189   15201
   15210       2   15183   15192   15198       2   15180   15165   15183       2
   15180   15189   15198       2   15180   15189   15201       2   15168   15180
   15189       2   15165   15180   15168       2   15165   15180   15189       2
   15165   15183   15192       2   15159   15144   15165       2   15147   15168
   15180       2   15144   15129   15147       2   15144   15165   15180       2
   15144   15165   15183       2   15141   15159   15144       2   15138   15126
   15141       2   15132   15150   15138       2   15129   15144   15159       2
   15129   15144   15165       2   15129   15147   15168       2   15126   15120
   15129       2   15126   15138   15150       2   15126   15141   15159       2
   15123   15120   15126       2   15123   15120   15129       2   15123   15132
   15150       2   15120   15123   15132       2   15120   15126   15138       2
   15120   15126   15141       2   15120   15129   15144       2   15120   15129
   15147       2   15315   15324   15318       2   15309   15318   15324       2
   15306   15297   15309       2   15306   15315   15324       2   15300   15306
   15315       2   15297   15306   15300       2   15297   15306   15315       2
   15297   15309   15318       2   15291   15300   15306       2   15288   15273
   15291       2   15288   15297   15306       2   15288   15297   15309       2
   15276   15288   15297       2   15273   15288   15276       2   15273   15288
   15297       2   15273   15291   15300       2   15267   15252   15273       2
   15255   15276   15288       2   15252   15237   15255       2   15252   15273
   15288       2   15252   15273   15291       2   15249   15267   15252       2
   15246   15234   15249       2   15240   15258   15246       2   15237   15252
   15267       2   15237   15252   15273       2   15237   15255   15276       2
   15234   15228   15237       2   15234   15246   15258       2   15234   15249
   15267       2   15231   15228   15234       2   15231   15228   15237       2
   15231   15240   15258       2   15228   15231   15240       2   15228   15234
   15246       2   15228   15234   15249       2   15228   15237   15252       2
   15228   15237   15255       2   15423   15432   15426       2   15417   15426
   15432       2   15414   15405   15417       2   15414   15423   15432       2
   15408   15414   15423       2   15405   15414   15408       2   15405   15414
   15423       2   15405   15417   15426       2   15399   15408   15414       2
   15396   15381   15399       2   15396   15405   15414       2   15396   15405
   15417       2   15384   15396   15405       2   15381   15396   15384       2
   15381   15396   15405       2   15381   15399   15408       2   15375   15360
   15381       2   15363   15384   15396       2   15360   15345   15363       2
   15360   15381   15396       2   15360   15381   15399       2   15357   15375
   15360       2   15354   15342   15357       2   15348   15366   15354       2
   15345   15360   15375       2   15345   15360   15381       2   15345   15363
   15384       2   15342   15336   15345       2   15342   15354   15366       2
   15342   15357   15375       2   15339   15336   15342       2   15339   15336
   15345       2   15339   15348   15366       2   15336   15339   15348       2
   15336   15342   15354       2   15336   15342   15357       2   15336   15345
   15360       2   15336   15345   15363       2   15531   15540   15534       2
   15525   15534   15540       2   15522   15513   15525       2   15522   15531
   15540       2   15516   15522   15531       2   15513   15522   15516       2
   15513   15522   15531       2   15513   15525   15534       2   15507   15516
   15522       2   15504   15489   15507       2   15504   15513   15522       2
   15504   15513   15525       2   15492   15504   15513       2   15489   15504
   15492       2   15489   15504   15513       2   15489   15507   15516       2
   15483   15468   15489       2   15471   15492   15504       2   15468   15453
   15471       2   15468   15489   15504       2   15468   15489   15507       2
   15465   15483   15468       2   15462   15450   15465       2   15456   15474
   15462       2   15453   15468   15483       2   15453   15468   15489       2
   15453   15471   15492       2   15450   15444   15453       2   15450   15462
   15474       2   15450   15465   15483       2   15447   15444   15450       2
   15447   15444   15453       2   15447   15456   15474       2   15444   15447
   15456       2   15444   15450   15462       2   15444   15450   15465       2
   15444   15453   15468       2   15444   15453   15471       2   15639   15648
   15642       2   15633   15642   15648       2   15630   15621   15633       2
   15630   15639   15648       2   15624   15630   15639       2   15621   15630
   15624       2   15621   15630   15639       2   15621   15633   15642       2
   15615   15624   15630       2   15612   15597   15615       2   15612   15621
   15630       2   15612   15621   15633       2   15600   15612   15621       2
   15597   15612   15600       2   15597   15612   15621       2   15597   15615
   15624       2   15591   15576   15597       2   15579   15600   15612       2
   15576   15561   15579       2   15576   15597   15612       2   15576   15597
   15615       2   15573   15591   15576       2   15570   15558   15573       2
   15564   15582   15570       2   15561   15576   15591       2   15561   15576
   15597       2   15561   15579   15600       2   15558   15552   15561       2
   15558   15570   15582       2   15558   15573   15591       2   15555   15552
   15558       2   15555   15552   15561       2   15555   15564   15582       2
   15552   15555   15564       2   15552   15558   15570       2   15552   15558
   15573       2   15552   15561   15576       2   15552   15561   15579       2
   15747   15756   15750       2   15741   15750   15756       2   15738   15729
   15741       2   15738   15747   15756       2   15732   15738   15747       2
   15729   15738   15732       2   15729   15738   15747       2   15729   15741
   15750       2   15723   15732   15738       2   15720   15705   15723       2
   15720   15729   15738       2   15720   15729   15741       2   15708   15720
   15729       2   15705   15720   15708       2   15705   15720   15729       2
   15705   15723   15732       2   15699   15684   15705       2   15687   15708
   15720       2   15684   15669   15687       2   15684   15705   15720       2
   15684   15705   15723       2   15681   15699   15684       2   15678   15666
   15681       2   15672   15690   15678       2   15669   15684   15699       2
   15669   15684   15705       2   15669   15687   15708       2   15666   15660
   15669       2   15666   15678   15690       2   15666   15681   15699       2
   15663   15660   15666       2   15663   15660   15669       2   15663   15672
   15690       2   15660   15663   15672       2   15660   15666   15678       2
   15660   15666   15681       2   15660   15669   15684       2   15660   15669
   15687       2   15855   15864   15858       2   15849   15858   15864       2
   15846   15837   15849       2   15846   15855   15864       2   15840   15846
   15855       2   15837   15846   15840       2   15837   15846   15855       2
   15837   15849   15858       2   15831   15840   15846       2   15828   15813
   15831       2   15828   15837   15846       2   15828   15837   15849       2
   15816   15828   15837       2   15813   15828   15816       2   15813   15828
   15837       2   15813   15831   15840       2   15807   15792   15813       2
   15795   15816   15828       2   15792   15777   15795       2   15792   15813
   15828       2   15792   15813   15831       2   15789   15807   15792       2
   15786   15774   15789       2   15780   15798   15786       2   15777   15792
   15807       2   15777   15792   15813       2   15777   15795   15816       2
   15774   15768   15777       2   15774   15786   15798       2   15774   15789
   15807       2   15771   15768   15774       2   15771   15768   15777       2
   15771   15780   15798       2   15768   15771   15780       2   15768   15774
   15786       2   15768   15774   15789       2   15768   15777   15792       2
   15768   15777   15795       2   15963   15972   15966       2   15957   15966
   15972       2   15954   15945   15957       2   15954   15963   15972       2
   15948   15954   15963       2   15945   15954   15948       2   15945   15954
   15963       2   15945   15957   15966       2   15939   15948   15954       2
   15936   15921   15939       2   15936   15945   15954       2   15936   15945
   15957       2   15924   15936   15945       2   15921   15936   15924       2
   15921   15936   15945       2   15921   15939   15948       2   15915   15900
   15921       2   15903   15924   15936       2   15900   15885   15903       2
   15900   15921   15936       2   15900   15921   15939       2   15897   15915
   15900       2   15894   15882   15897       2   15888   15906   15894       2
   15885   15900   15915       2   15885   15900   15921       2   15885   15903
   15924       2   15882   15876   15885       2   15882   15894   15906       2
   15882   15897   15915       2   15879   15876   15882       2   15879   15876
   15885       2   15879   15888   15906       2   15876   15879   15888       2
   15876   15882   15894       2   15876   15882   15897       2   15876   15885
   15900       2   15876   15885   15903       2   16071   16080   16074       2
   16065   16074   16080       2   16062   16053   16065       2   16062   16071
   16080       2   16056   16062   16071       2   16053   16062   16056       2
   16053   16062   16071       2   16053   16065   16074       2   16047   16056
   16062       2   16044   16029   16047       2   16044   16053   16062       2
   16044   16053   16065       2   16032   16044   16053       2   16029   16044
   16032       2   16029   16044   16053       2   16029   16047   16056       2
   16023   16008   16029       2   16011   16032   16044       2   16008   15993
   16011       2   16008   16029   16044       2   16008   16029   16047       2
   16005   16023   16008       2   16002   15990   16005       2   15996   16014
   16002       2   15993   16008   16023       2   15993   16008   16029       2
   15993   16011   16032       2   15990   15984   15993       2   15990   16002
   16014       2   15990   16005   16023       2   15987   15984   15990       2
   15987   15984   15993       2   15987   15996   16014       2   15984   15987
   15996       2   15984   15990   16002       2   15984   15990   16005       2
   15984   15993   16008       2   15984   15993   16011       2   16179   16188
   16182       2   16173   16182   16188       2   16170   16161   16173       2
   16170   16179   16188       2   16164   16170   16179       2   16161   16170
   16164       2   16161   16170   16179       2   16161   16173   16182       2
   16155   16164   16170       2   16152   16137   16155       2   16152   16161
   16170       2   16152   16161   16173       2   16140   16152   16161       2
   16137   16152   16140       2   16137   16152   16161       2   16137   16155
   16164       2   16131   16116   16137       2   16119   16140   16152       2
   16116   16101   16119       2   16116   16137   16152       2   16116   16137
   16155       2   16113   16131   16116       2   16110   16098   16113       2
   16104   16122   16110       2   16101   16116   16131       2   16101   16116
   16137       2   16101   16119   16140       2   16098   16092   16101       2
   16098   16110   16122       2   16098   16113   16131       2   16095   16092
   16098       2   16095   16092   16101       2   16095   16104   16122       2
   16092   16095   16104       2   16092   16098   16110       2   16092   16098
   16113       2   16092   16101   16116       2   16092   16101   16119       2
   16287   16296   16290       2   16281   16290   16296       2   16278   16269
   16281       2   16278   16287   16296       2   16272   16278   16287       2
   16269   16278   16272       2   16269   16278   16287       2   16269   16281
   16290       2   16263   16272   16278       2   16260   16245   16263       2
   16260   16269   16278       2   16260   16269   16281       2   16248   16260
   16269       2   16245   16260   16248       2   16245   16260   16269       2
   16245   16263   16272       2   16239   16224   16245       2   16227   16248
   16260       2   16224   16209   16227       2   16224   16245   16260       2
   16224   16245   16263       2   16221   16239   16224       2   16218   16206
   16221       2   16212   16230   16218       2   16209   16224   16239       2
   16209   16224   16245       2   16209   16227   16248       2   16206   16200
   16209       2   16206   16218   16230       2   16206   16221   16239       2
   16203   16200   16206       2   16203   16200   16209       2   16203   16212
   16230       2   16200   16203   16212       2   16200   16206   16218       2
   16200   16206   16221       2   16200   16209   16224       2   16200   16209
   16227       2   16395   16404   16398       2   16389   16398   16404       2
   16386   16377   16389       2   16386   16395   16404       2   16380   16386
   16395       2   16377   16386   16380       2   16377   16386   16395       2
   16377   16389   16398       2   16371   16380   16386       2   16368   16353
   16371       2   16368   16377   16386       2   16368   16377   16389       2
   16356   16368   16377       2   16353   16368   16356       2   16353   16368
   16377       2   16353   16371   16380       2   16347   16332   16353       2
   16335   16356   16368       2   16332   16317   16335       2   16332   16353
   16368       2   16332   16353   16371       2   16329   16347   16332       2
   16326   16314   16329       2   16320   16338   16326       2   16317   16332
   16347       2   16317   16332   16353       2   16317   16335   16356       2
   16314   16308   16317       2   16314   16326   16338       2   16314   16329
   16347       2   16311   16308   16314       2   16311   16308   16317       2
   16311   16320   16338       2   16308   16311   16320       2   16308   16314
   16326       2   16308   16314   16329       2   16308   16317   16332       2
   16308   16317   16335       2   16503   16512   16506       2   16497   16506
   16512       2   16494   16485   16497       2   16494   16503   16512       2
   16488   16494   16503       2   16485   16494   16488       2   16485   16494
   16503       2   16485   16497   16506       2   16479   16488   16494       2
   16476   16461   16479       2   16476   16485   16494       2   16476   16485
   16497       2   16464   16476   16485       2   16461   16476   16464       2
   16461   16476   16485       2   16461   16479   16488       2   16455   16440
   16461       2   16443   16464   16476       2   16440   16425   16443       2
   16440   16461   16476       2   16440   16461   16479       2   16437   16455
   16440       2   16434   16422   16437       2   16428   16446   16434       2
   16425   16440   16455       2   16425   16440   16461       2   16425   16443
   16464       2   16422   16416   16425       2   16422   16434   16446       2
   16422   16437   16455       2   16419   16416   16422       2   16419   16416
   16425       2   16419   16428   16446       2   16416   16419   16428       2
   16416   16422   16434       2   16416   16422   16437       2   16416   16425
   16440       2   16416   16425   16443       2   16611   16620   16614       2
   16605   16614   16620       2   16602   16593   16605       2   16602   16611
   16620       2   16596   16602   16611       2   16593   16602   16596       2
   16593   16602   16611       2   16593   16605   16614       2   16587   16596
   16602       2   16584   16569   16587       2   16584   16593   16602       2
   16584   16593   16605       2   16572   16584   16593       2   16569   16584
   16572       2   16569   16584   16593       2   16569   16587   16596       2
   16563   16548   16569       2   16551   16572   16584       2   16548   16533
   16551       2   16548   16569   16584       2   16548   16569   16587       2
   16545   16563   16548       2   16542   16530   16545       2   16536   16554
   16542       2   16533   16548   16563       2   16533   16548   16569       2
   16533   16551   16572       2   16530   16524   16533       2   16530   16542
   16554       2   16530   16545   16563       2   16527   16524   16530       2
   16527   16524   16533       2   16527   16536   16554       2   16524   16527
   16536       2   16524   16530   16542       2   16524   16530   16545       2
   16524   16533   16548       2   16524   16533   16551       2   16719   16728
   16722       2   16713   16722   16728       2   16710   16701   16713       2
   16710   16719   16728       2   16704   16710   16719       2   16701   16710
   16704       2   16701   16710   16719       2   16701   16713   16722       2
   16695   16704   16710       2   16692   16677   16695       2   16692   16701
   16710       2   16692   16701   16713       2   16680   16692   16701       2
   16677   16692   16680       2   16677   16692   16701       2   16677   16695
   16704       2   16671   16656   16677       2   16659   16680   16692       2
   16656   16641   16659       2   16656   16677   16692       2   16656   16677
   16695       2   16653   16671   16656       2   16650   16638   16653       2
   16644   16662   16650       2   16641   16656   16671       2   16641   16656
   16677       2   16641   16659   16680       2   16638   16632   16641       2
   16638   16650   16662       2   16638   16653   16671       2   16635   16632
   16638       2   16635   16632   16641       2   16635   16644   16662       2
   16632   16635   16644       2   16632   16638   16650       2   16632   16638
   16653       2   16632   16641   16656       2   16632   16641   16659       2
   16827   16836   16830       2   16821   16830   16836       2   16818   16809
   16821       2   16818   16827   16836       2   16812   16818   16827       2
   16809   16818   16812       2   16809   16818   16827       2   16809   16821
   16830       2   16803   16812   16818       2   16800   16785   16803       2
   16800   16809   16818       2   16800   16809   16821       2   16788   16800
   16809       2   16785   16800   16788       2   16785   16800   16809       2
   16785   16803   16812       2   16779   16764   16785       2   16767   16788
   16800       2   16764   16749   16767       2   16764   16785   16800       2
   16764   16785   16803       2   16761   16779   16764       2   16758   16746
   16761       2   16752   16770   16758       2   16749   16764   16779       2
   16749   16764   16785       2   16749   16767   16788       2   16746   16740
   16749       2   16746   16758   16770       2   16746   16761   16779       2
   16743   16740   16746       2   16743   16740   16749       2   16743   16752
   16770       2   16740   16743   16752       2   16740   16746   16758       2
   16740   16746   16761       2   16740   16749   16764       2   16740   16749
   16767       2   16935   16944   16938       2   16929   16938   16944       2
   16926   16917   16929       2   16926   16935   16944       2   16920   16926
   16935       2   16917   16926   16920       2   16917   16926   16935       2
   16917   16929   16938       2   16911   16920   16926       2   16908   16893
   16911       2   16908   16917   16926       2   16908   16917   16929       2
   16896   16908   16917       2   16893   16908   16896       2   16893   16908
   16917       2   16893   16911   16920       2   16887   16872   16893       2
   16875   16896   16908       2   16872   16857   16875       2   16872   16893
   16908       2   16872   16893   16911       2   16869   16887   16872       2
   16866   16854   16869       2   16860   16878   16866       2   16857   16872
   16887       2   16857   16872   16893       2   16857   16875   16896       2
   16854   16848   16857       2   16854   16866   16878       2   16854   16869
   16887       2   16851   16848   16854       2   16851   16848   16857       2
   16851   16860   16878       2   16848   16851   16860       2   16848   16854
   16866       2   16848   16854   16869       2   16848   16857   16872       2
   16848   16857   16875       2   17043   17052   17046       2   17037   17046
   17052       2   17034   17025   17037       2   17034   17043   17052       2
   17028   17034   17043       2   17025   17034   17028       2   17025   17034
   17043       2   17025   17037   17046       2   17019   17028   17034       2
   17016   17001   17019       2   17016   17025   17034       2   17016   17025
   17037       2   17004   17016   17025       2   17001   17016   17004       2
   17001   17016   17025       2   17001   17019   17028       2   16995   16980
   17001       2   16983   17004   17016       2   16980   16965   16983       2
   16980   17001   17016       2   16980   17001   17019       2   16977   16995
   16980       2   16974   16962   16977       2   16968   16986   16974       2
   16965   16980   16995       2   16965   16980   17001       2   16965   16983
   17004       2   16962   16956   16965       2   16962   16974   16986       2
   16962   16977   16995       2   16959   16956   16962       2   16959   16956
   16965       2   16959   16968   16986       2   16956   16959   16968       2
   16956   16962   16974       2   16956   16962   16977       2   16956   16965
   16980       2   16956   16965   16983       2   17151   17160   17154       2
   17145   17154   17160       2   17142   17133   17145       2   17142   17151
   17160       2   17136   17142   17151       2   17133   17142   17136       2
   17133   17142   17151       2   17133   17145   17154       2   17127   17136
   17142       2   17124   17109   17127       2   17124   17133   17142       2
   17124   17133   17145       2   17112   17124   17133       2   17109   17124
   17112       2   17109   17124   17133       2   17109   17127   17136       2
   17103   17088   17109       2   17091   17112   17124       2   17088   17073
   17091       2   17088   17109   17124       2   17088   17109   17127       2
   17085   17103   17088       2   17082   17070   17085       2   17076   17094
   17082       2   17073   17088   17103       2   17073   17088   17109       2
   17073   17091   17112       2   17070   17064   17073       2   17070   17082
   17094       2   17070   17085   17103       2   17067   17064   17070       2
   17067   17064   17073       2   17067   17076   17094       2   17064   17067
   17076       2   17064   17070   17082       2   17064   17070   17085       2
   17064   17073   17088       2   17064   17073   17091       2   17259   17268
   17262       2   17253   17262   17268       2   17250   17241   17253       2
   17250   17259   17268       2   17244   17250   17259       2   17241   17250
   17244       2   17241   17250   17259       2   17241   17253   17262       2
   17235   17244   17250       2   17232   17217   17235       2   17232   17241
   17250       2   17232   17241   17253       2   17220   17232   17241       2
   17217   17232   17220       2   17217   17232   17241       2   17217   17235
   17244       2   17211   17196   17217       2   17199   17220   17232       2
   17196   17181   17199       2   17196   17217   17232       2   17196   17217
   17235       2   17193   17211   17196       2   17190   17178   17193       2
   17184   17202   17190       2   17181   17196   17211       2   17181   17196
   17217       2   17181   17199   17220       2   17178   17172   17181       2
   17178   17190   17202       2   17178   17193   17211       2   17175   17172
   17178       2   17175   17172   17181       2   17175   17184   17202       2
   17172   17175   17184       2   17172   17178   17190       2   17172   17178
   17193       2   17172   17181   17196       2   17172   17181   17199       2
   17367   17376   17370       2   17361   17370   17376       2   17358   17349
   17361       2   17358   17367   17376       2   17352   17358   17367       2
   17349   17358   17352       2   17349   17358   17367       2   17349   17361
   17370       2   17343   17352   17358       2   17340   17325   17343       2
   17340   17349   17358       2   17340   17349   17361       2   17328   17340
   17349       2   17325   17340   17328       2   17325   17340   17349       2
   17325   17343   17352       2   17319   17304   17325       2   17307   17328
   17340       2   17304   17289   17307       2   17304   17325   17340       2
   17304   17325   17343       2   17301   17319   17304       2   17298   17286
   17301       2   17292   17310   17298       2   17289   17304   17319       2
   17289   17304   17325       2   17289   17307   17328       2   17286   17280
   17289       2   17286   17298   17310       2   17286   17301   17319       2
   17283   17280   17286       2   17283   17280   17289       2   17283   17292
   17310       2   17280   17283   17292       2   17280   17286   17298       2
   17280   17286   17301       2   17280   17289   17304       2   17280   17289
   17307       2   17475   17484   17478       2   17469   17478   17484       2
   17466   17457   17469       2   17466   17475   17484       2   17460   17466
   17475       2   17457   17466   17460       2   17457   17466   17475       2
   17457   17469   17478       2   17451   17460   17466       2   17448   17433
   17451       2   17448   17457   17466       2   17448   17457   17469       2
   17436   17448   17457       2   17433   17448   17436       2   17433   17448
   17457       2   17433   17451   17460       2   17427   17412   17433       2
   17415   17436   17448       2   17412   17397   17415       2   17412   17433
   17448       2   17412   17433   17451       2   17409   17427   17412       2
   17406   17394   17409       2   17400   17418   17406       2   17397   17412
   17427       2   17397   17412   17433       2   17397   17415   17436       2
   17394   17388   17397       2   17394   17406   17418       2   17394   17409
   17427       2   17391   17388   17394       2   17391   17388   17397       2
   17391   17400   17418       2   17388   17391   17400       2   17388   17394
   17406       2   17388   17394   17409       2   17388   17397   17412       2
   17388   17397   17415       2   17583   17592   17586       2   17577   17586
   17592       2   17574   17565   17577       2   17574   17583   17592       2
   17568   17574   17583       2   17565   17574   17568       2   17565   17574
   17583       2   17565   17577   17586       2   17559   17568   17574       2
   17556   17541   17559       2   17556   17565   17574       2   17556   17565
   17577       2   17544   17556   17565       2   17541   17556   17544       2
   17541   17556   17565       2   17541   17559   17568       2   17535   17520
   17541       2   17523   17544   17556       2   17520   17505   17523       2
   17520   17541   17556       2   17520   17541   17559       2   17517   17535
   17520       2   17514   17502   17517       2   17508   17526   17514       2
   17505   17520   17535       2   17505   17520   17541       2   17505   17523
   17544       2   17502   17496   17505       2   17502   17514   17526       2
   17502   17517   17535       2   17499   17496   17502       2   17499   17496
   17505       2   17499   17508   17526       2   17496   17499   17508       2
   17496   17502   17514       2   17496   17502   17517       2   17496   17505
   17520       2   17496   17505   17523       2   17691   17700   17694       2
   17685   17694   17700       2   17682   17673   17685       2   17682   17691
   17700       2   17676   17682   17691       2   17673   17682   17676       2
   17673   17682   17691       2   17673   17685   17694       2   17667   17676
   17682       2   17664   17649   17667       2   17664   17673   17682       2
   17664   17673   17685       2   17652   17664   17673       2   17649   17664
   17652       2   17649   17664   17673       2   17649   17667   17676       2
   17643   17628   17649       2   17631   17652   17664       2   17628   17613
   17631       2   17628   17649   17664       2   17628   17649   17667       2
   17625   17643   17628       2   17622   17610   17625       2   17616   17634
   17622       2   17613   17628   17643       2   17613   17628   17649       2
   17613   17631   17652       2   17610   17604   17613       2   17610   17622
   17634       2   17610   17625   17643       2   17607   17604   17610       2
   17607   17604   17613       2   17607   17616   17634       2   17604   17607
   17616       2   17604   17610   17622       2   17604   17610   17625       2
   17604   17613   17628       2   17604   17613   17631       2   17799   17808
   17802       2   17793   17802   17808       2   17790   17781   17793       2
   17790   17799   17808       2   17784   17790   17799       2   17781   17790
   17784       2   17781   17790   17799       2   17781   17793   17802       2
   17775   17784   17790       2   17772   17757   17775       2   17772   17781
   17790       2   17772   17781   17793       2   17760   17772   17781       2
   17757   17772   17760       2   17757   17772   17781       2   17757   17775
   17784       2   17751   17736   17757       2   17739   17760   17772       2
   17736   17721   17739       2   17736   17757   17772       2   17736   17757
   17775       2   17733   17751   17736       2   17730   17718   17733       2
   17724   17742   17730       2   17721   17736   17751       2   17721   17736
   17757       2   17721   17739   17760       2   17718   17712   17721       2
   17718   17730   17742       2   17718   17733   17751       2   17715   17712
   17718       2   17715   17712   17721       2   17715   17724   17742       2
   17712   17715   17724       2   17712   17718   17730       2   17712   17718
   17733       2   17712   17721   17736       2   17712   17721   17739       2
   17907   17916   17910       2   17901   17910   17916       2   17898   17889
   17901       2   17898   17907   17916       2   17892   17898   17907       2
   17889   17898   17892       2   17889   17898   17907       2   17889   17901
   17910       2   17883   17892   17898       2   17880   17865   17883       2
   17880   17889   17898       2   17880   17889   17901       2   17868   17880
   17889       2   17865   17880   17868       2   17865   17880   17889       2
   17865   17883   17892       2   17859   17844   17865       2   17847   17868
   17880       2   17844   17829   17847       2   17844   17865   17880       2
   17844   17865   17883       2   17841   17859   17844       2   17838   17826
   17841       2   17832   17850   17838       2   17829   17844   17859       2
   17829   17844   17865       2   17829   17847   17868       2   17826   17820
   17829       2   17826   17838   17850       2   17826   17841   17859       2
   17823   17820   17826       2   17823   17820   17829       2   17823   17832
   17850       2   17820   17823   17832       2   17820   17826   17838       2
   17820   17826   17841       2   17820   17829   17844       2   17820   17829
   17847       2   18015   18024   18018       2   18009   18018   18024       2
   18006   17997   18009       2   18006   18015   18024       2   18000   18006
   18015       2   17997   18006   18000       2   17997   18006   18015       2
   17997   18009   18018       2   17991   18000   18006       2   17988   17973
   17991       2   17988   17997   18006       2   17988   17997   18009       2
   17976   17988   17997       2   17973   17988   17976       2   17973   17988
   17997       2   17973   17991   18000       2   17967   17952   17973       2
   17955   17976   17988       2   17952   17937   17955       2   17952   17973
   17988       2   17952   17973   17991       2   17949   17967   17952       2
   17946   17934   17949       2   17940   17958   17946       2   17937   17952
   17967       2   17937   17952   17973       2   17937   17955   17976       2
   17934   17928   17937       2   17934   17946   17958       2   17934   17949
   17967       2   17931   17928   17934       2   17931   17928   17937       2
   17931   17940   17958       2   17928   17931   17940       2   17928   17934
   17946       2   17928   17934   17949       2   17928   17937   17952       2
   17928   17937   17955       2   18123   18132   18126       2   18117   18126
   18132       2   18114   18105   18117       2   18114   18123   18132       2
   18108   18114   18123       2   18105   18114   18108       2   18105   18114
   18123       2   18105   18117   18126       2   18099   18108   18114       2
   18096   18081   18099       2   18096   18105   18114       2   18096   18105
   18117       2   18084   18096   18105       2   18081   18096   18084       2
   18081   18096   18105       2   18081   18099   18108       2   18075   18060
   18081       2   18063   18084   18096       2   18060   18045   18063       2
   18060   18081   18096       2   18060   18081   18099       2   18057   18075
   18060       2   18054   18042   18057       2   18048   18066   18054       2
   18045   18060   18075       2   18045   18060   18081       2   18045   18063
   18084       2   18042   18036   18045       2   18042   18054   18066       2
   18042   18057   18075       2   18039   18036   18042       2   18039   18036
   18045       2   18039   18048   18066       2   18036   18039   18048       2
   18036   18042   18054       2   18036   18042   18057       2   18036   18045
   18060       2   18036   18045   18063       2   18231   18240   18234       2
   18225   18234   18240       2   18222   18213   18225       2   18222   18231
   18240       2   18216   18222   18231       2   18213   18222   18216       2
   18213   18222   18231       2   18213   18225   18234       2   18207   18216
   18222       2   18204   18189   18207       2   18204   18213   18222       2
   18204   18213   18225       2   18192   18204   18213       2   18189   18204
   18192       2   18189   18204   18213       2   18189   18207   18216       2
   18183   18168   18189       2   18171   18192   18204       2   18168   18153
   18171       2   18168   18189   18204       2   18168   18189   18207       2
   18165   18183   18168       2   18162   18150   18165       2   18156   18174
   18162       2   18153   18168   18183       2   18153   18168   18189       2
   18153   18171   18192       2   18150   18144   18153       2   18150   18162
   18174       2   18150   18165   18183       2   18147   18144   18150       2
   18147   18144   18153       2   18147   18156   18174       2   18144   18147
   18156       2   18144   18150   18162       2   18144   18150   18165       2
   18144   18153   18168       2   18144   18153   18171       2   18339   18348
   18342       2   18333   18342   18348       2   18330   18321   18333       2
   18330   18339   18348       2   18324   18330   18339       2   18321   18330
   18324       2   18321   18330   18339       2   18321   18333   18342       2
   18315   18324   18330       2   18312   18297   18315       2   18312   18321
   18330       2   18312   18321   18333       2   18300   18312   18321       2
   18297   18312   18300       2   18297   18312   18321       2   18297   18315
   18324       2   18291   18276   18297       2   18279   18300   18312       2
   18276   18261   18279       2   18276   18297   18312       2   18276   18297
   18315       2   18273   18291   18276       2   18270   18258   18273       2
   18264   18282   18270       2   18261   18276   18291       2   18261   18276
   18297       2   18261   18279   18300       2   18258   18252   18261       2
   18258   18270   18282       2   18258   18273   18291       2   18255   18252
   18258       2   18255   18252   18261       2   18255   18264   18282       2
   18252   18255   18264       2   18252   18258   18270       2   18252   18258
   18273       2   18252   18261   18276       2   18252   18261   18279       2
   18447   18456   18450       2   18441   18450   18456       2   18438   18429
   18441       2   18438   18447   18456       2   18432   18438   18447       2
   18429   18438   18432       2   18429   18438   18447       2   18429   18441
   18450       2   18423   18432   18438       2   18420   18405   18423       2
   18420   18429   18438       2   18420   18429   18441       2   18408   18420
   18429       2   18405   18420   18408       2   18405   18420   18429       2
   18405   18423   18432       2   18399   18384   18405       2   18387   18408
   18420       2   18384   18369   18387       2   18384   18405   18420       2
   18384   18405   18423       2   18381   18399   18384       2   18378   18366
   18381       2   18372   18390   18378       2   18369   18384   18399       2
   18369   18384   18405       2   18369   18387   18408       2   18366   18360
   18369       2   18366   18378   18390       2   18366   18381   18399       2
   18363   18360   18366       2   18363   18360   18369       2   18363   18372
   18390       2   18360   18363   18372       2   18360   18366   18378       2
   18360   18366   18381       2   18360   18369   18384       2   18360   18369
   18387       2   18555   18564   18558       2   18549   18558   18564       2
   18546   18537   18549       2   18546   18555   18564       2   18540   18546
   18555       2   18537   18546   18540       2   18537   18546   18555       2
   18537   18549   18558       2   18531   18540   18546       2   18528   18513
   18531       2   18528   18537   18546       2   18528   18537   18549       2
   18516   18528   18537       2   18513   18528   18516       2   18513   18528
   18537       2   18513   18531   18540       2   18507   18492   18513       2
   18495   18516   18528       2   18492   18477   18495       2   18492   18513
   18528       2   18492   18513   18531       2   18489   18507   18492       2
   18486   18474   18489       2   18480   18498   18486       2   18477   18492
   18507       2   18477   18492   18513       2   18477   18495   18516       2
   18474   18468   18477       2   18474   18486   18498       2   18474   18489
   18507       2   18471   18468   18474       2   18471   18468   18477       2
   18471   18480   18498       2   18468   18471   18480       2   18468   18474
   18486       2   18468   18474   18489       2   18468   18477   18492       2
   18468   18477   18495       2   18663   18672   18666       2   18657   18666
   18672       2   18654   18645   18657       2   18654   18663   18672       2
   18648   18654   18663       2   18645   18654   18648       2   18645   18654
   18663       2   18645   18657   18666       2   18639   18648   18654       2
   18636   18621   18639       2   18636   18645   18654       2   18636   18645
   18657       2   18624   18636   18645       2   18621   18636   18624       2
   18621   18636   18645       2   18621   18639   18648       2   18615   18600
   18621       2   18603   18624   18636       2   18600   18585   18603       2
   18600   18621   18636       2   18600   18621   18639       2   18597   18615
   18600       2   18594   18582   18597       2   18588   18606   18594       2
   18585   18600   18615       2   18585   18600   18621       2   18585   18603
   18624       2   18582   18576   18585       2   18582   18594   18606       2
   18582   18597   18615       2   18579   18576   18582       2   18579   18576
   18585       2   18579   18588   18606       2   18576   18579   18588       2
   18576   18582   18594       2   18576   18582   18597       2   18576   18585
   18600       2   18576   18585   18603       2   18771   18780   18774       2
   18765   18774   18780       2   18762   18753   18765       2   18762   18771
   18780       2   18756   18762   18771       2   18753   18762   18756       2
   18753   18762   18771       2   18753   18765   18774       2   18747   18756
   18762       2   18744   18729   18747       2   18744   18753   18762       2
   18744   18753   18765       2   18732   18744   18753       2   18729   18744
   18732       2   18729   18744   18753       2   18729   18747   18756       2
   18723   18708   18729       2   18711   18732   18744       2   18708   18693
   18711       2   18708   18729   18744       2   18708   18729   18747       2
   18705   18723   18708       2   18702   18690   18705       2   18696   18714
   18702       2   18693   18708   18723       2   18693   18708   18729       2
   18693   18711   18732       2   18690   18684   18693       2   18690   18702
   18714       2   18690   18705   18723       2   18687   18684   18690       2
   18687   18684   18693       2   18687   18696   18714       2   18684   18687
   18696       2   18684   18690   18702       2   18684   18690   18705       2
   18684   18693   18708       2   18684   18693   18711       2   18879   18888
   18882       2   18873   18882   18888       2   18870   18861   18873       2
   18870   18879   18888       2   18864   18870   18879       2   18861   18870
   18864       2   18861   18870   18879       2   18861   18873   18882       2
   18855   18864   18870       2   18852   18837   18855       2   18852   18861
   18870       2   18852   18861   18873       2   18840   18852   18861       2
   18837   18852   18840       2   18837   18852   18861       2   18837   18855
   18864       2   18831   18816   18837       2   18819   18840   18852       2
   18816   18801   18819       2   18816   18837   18852       2   18816   18837
   18855       2   18813   18831   18816       2   18810   18798   18813       2
   18804   18822   18810       2   18801   18816   18831       2   18801   18816
   18837       2   18801   18819   18840       2   18798   18792   18801       2
   18798   18810   18822       2   18798   18813   18831       2   18795   18792
   18798       2   18795   18792   18801       2   18795   18804   18822       2
   18792   18795   18804       2   18792   18798   18810       2   18792   18798
   18813       2   18792   18801   18816       2   18792   18801   18819       2
   18987   18996   18990       2   18981   18990   18996       2   18978   18969
   18981       2   18978   18987   18996       2   18972   18978   18987       2
   18969   18978   18972       2   18969   18978   18987       2   18969   18981
   18990       2   18963   18972   18978       2   18960   18945   18963       2
   18960   18969   18978       2   18960   18969   18981       2   18948   18960
   18969       2   18945   18960   18948       2   18945   18960   18969       2
   18945   18963   18972       2   18939   18924   18945       2   18927   18948
   18960       2   18924   18909   18927       2   18924   18945   18960       2
   18924   18945   18963       2   18921   18939   18924       2   18918   18906
   18921       2   18912   18930   18918       2   18909   18924   18939       2
   18909   18924   18945       2   18909   18927   18948       2   18906   18900
   18909       2   18906   18918   18930       2   18906   18921   18939       2
   18903   18900   18906       2   18903   18900   18909       2   18903   18912
   18930       2   18900   18903   18912       2   18900   18906   18918       2
   18900   18906   18921       2   18900   18909   18924       2   18900   18909
   18927       2   19095   19104   19098       2   19089   19098   19104       2
   19086   19077   19089       2   19086   19095   19104       2   19080   19086
   19095       2   19077   19086   19080       2   19077   19086   19095       2
   19077   19089   19098       2   19071   19080   19086       2   19068   19053
   19071       2   19068   19077   19086       2   19068   19077   19089       2
   19056   19068   19077       2   19053   19068   19056       2   19053   19068
   19077       2   19053   19071   19080       2   19047   19032   19053       2
   19035   19056   19068       2   19032   19017   19035       2   19032   19053
   19068       2   19032   19053   19071       2   19029   19047   19032       2
   19026   19014   19029       2   19020   19038   19026       2   19017   19032
   19047       2   19017   19032   19053       2   19017   19035   19056       2
   19014   19008   19017       2   19014   19026   19038       2   19014   19029
   19047       2   19011   19008   19014       2   19011   19008   19017       2
   19011   19020   19038       2   19008   19011   19020       2   19008   19014
   19026       2   19008   19014   19029       2   19008   19017   19032       2
   19008   19017   19035       2   19203   19212   19206       2   19197   19206
   19212       2   19194   19185   19197       2   19194   19203   19212       2
   19188   19194   19203       2   19185   19194   19188       2   19185   19194
   19203       2   19185   19197   19206       2   19179   19188   19194       2
   19176   19161   19179       2   19176   19185   19194       2   19176   19185
   19197       2   19164   19176   19185       2   19161   19176   19164       2
   19161   19176   19185       2   19161   19179   19188       2   19155   19140
   19161       2   19143   19164   19176       2   19140   19125   19143       2
   19140   19161   19176       2   19140   19161   19179       2   19137   19155
   19140       2   19134   19122   19137       2   19128   19146   19134       2
   19125   19140   19155       2   19125   19140   19161       2   19125   19143
   19164       2   19122   19116   19125       2   19122   19134   19146       2
   19122   19137   19155       2   19119   19116   19122       2   19119   19116
   19125       2   19119   19128   19146       2   19116   19119   19128       2
   19116   19122   19134       2   19116   19122   19137       2   19116   19125
   19140       2   19116   19125   19143       2   19311   19320   19314       2
   19305   19314   19320       2   19302   19293   19305       2   19302   19311
   19320       2   19296   19302   19311       2   19293   19302   19296       2
   19293   19302   19311       2   19293   19305   19314       2   19287   19296
   19302       2   19284   19269   19287       2   19284   19293   19302       2
   19284   19293   19305       2   19272   19284   19293       2   19269   19284
   19272       2   19269   19284   19293       2   19269   19287   19296       2
   19263   19248   19269       2   19251   19272   19284       2   19248   19233
   19251       2   19248   19269   19284       2   19248   19269   19287       2
   19245   19263   19248       2   19242   19230   19245       2   19236   19254
   19242       2   19233   19248   19263       2   19233   19248   19269       2
   19233   19251   19272       2   19230   19224   19233       2   19230   19242
   19254       2   19230   19245   19263       2   19227   19224   19230       2
   19227   19224   19233       2   19227   19236   19254       2   19224   19227
   19236       2   19224   19230   19242       2   19224   19230   19245       2
   19224   19233   19248       2   19224   19233   19251       2   19419   19428
   19422       2   19413   19422   19428       2   19410   19401   19413       2
   19410   19419   19428       2   19404   19410   19419       2   19401   19410
   19404       2   19401   19410   19419       2   19401   19413   19422       2
   19395   19404   19410       2   19392   19377   19395       2   19392   19401
   19410       2   19392   19401   19413       2   19380   19392   19401       2
   19377   19392   19380       2   19377   19392   19401       2   19377   19395
   19404       2   19371   19356   19377       2   19359   19380   19392       2
   19356   19341   19359       2   19356   19377   19392       2   19356   19377
   19395       2   19353   19371   19356       2   19350   19338   19353       2
   19344   19362   19350       2   19341   19356   19371       2   19341   19356
   19377       2   19341   19359   19380       2   19338   19332   19341       2
   19338   19350   19362       2   19338   19353   19371       2   19335   19332
   19338       2   19335   19332   19341       2   19335   19344   19362       2
   19332   19335   19344       2   19332   19338   19350       2   19332   19338
   19353       2   19332   19341   19356       2   19332   19341   19359       2
   19527   19536   19530       2   19521   19530   19536       2   19518   19509
   19521       2   19518   19527   19536       2   19512   19518   19527       2
   19509   19518   19512       2   19509   19518   19527       2   19509   19521
   19530       2   19503   19512   19518       2   19500   19485   19503       2
   19500   19509   19518       2   19500   19509   19521       2   19488   19500
   19509       2   19485   19500   19488       2   19485   19500   19509       2
   19485   19503   19512       2   19479   19464   19485       2   19467   19488
   19500       2   19464   19449   19467       2   19464   19485   19500       2
   19464   19485   19503       2   19461   19479   19464       2   19458   19446
   19461       2   19452   19470   19458       2   19449   19464   19479       2
   19449   19464   19485       2   19449   19467   19488       2   19446   19440
   19449       2   19446   19458   19470       2   19446   19461   19479       2
   19443   19440   19446       2   19443   19440   19449       2   19443   19452
   19470       2   19440   19443   19452       2   19440   19446   19458       2
   19440   19446   19461       2   19440   19449   19464       2   19440   19449
   19467       2   19635   19644   19638       2   19629   19638   19644       2
   19626   19617   19629       2   19626   19635   19644       2   19620   19626
   19635       2   19617   19626   19620       2   19617   19626   19635       2
   19617   19629   19638       2   19611   19620   19626       2   19608   19593
   19611       2   19608   19617   19626       2   19608   19617   19629       2
   19596   19608   19617       2   19593   19608   19596       2   19593   19608
   19617       2   19593   19611   19620       2   19587   19572   19593       2
   19575   19596   19608       2   19572   19557   19575       2   19572   19593
   19608       2   19572   19593   19611       2   19569   19587   19572       2
   19566   19554   19569       2   19560   19578   19566       2   19557   19572
   19587       2   19557   19572   19593       2   19557   19575   19596       2
   19554   19548   19557       2   19554   19566   19578       2   19554   19569
   19587       2   19551   19548   19554       2   19551   19548   19557       2
   19551   19560   19578       2   19548   19551   19560       2   19548   19554
   19566       2   19548   19554   19569       2   19548   19557   19572       2
   19548   19557   19575       2   19743   19752   19746       2   19737   19746
   19752       2   19734   19725   19737       2   19734   19743   19752       2
   19728   19734   19743       2   19725   19734   19728       2   19725   19734
   19743       2   19725   19737   19746       2   19719   19728   19734       2
   19716   19701   19719       2   19716   19725   19734       2   19716   19725
   19737       2   19704   19716   19725       2   19701   19716   19704       2
   19701   19716   19725       2   19701   19719   19728       2   19695   19680
   19701       2   19683   19704   19716       2   19680   19665   19683       2
   19680   19701   19716       2   19680   19701   19719       2   19677   19695
   19680       2   19674   19662   19677       2   19668   19686   19674       2
   19665   19680   19695       2   19665   19680   19701       2   19665   19683
   19704       2   19662   19656   19665       2   19662   19674   19686       2
   19662   19677   19695       2   19659   19656   19662       2   19659   19656
   19665       2   19659   19668   19686       2   19656   19659   19668       2
   19656   19662   19674       2   19656   19662   19677       2   19656   19665
   19680       2   19656   19665   19683       2   19851   19860   19854       2
   19845   19854   19860       2   19842   19833   19845       2   19842   19851
   19860       2   19836   19842   19851       2   19833   19842   19836       2
   19833   19842   19851       2   19833   19845   19854       2   19827   19836
   19842       2   19824   19809   19827       2   19824   19833   19842       2
   19824   19833   19845       2   19812   19824   19833       2   19809   19824
   19812       2   19809   19824   19833       2   19809   19827   19836       2
   19803   19788   19809       2   19791   19812   19824       2   19788   19773
   19791       2   19788   19809   19824       2   19788   19809   19827       2
   19785   19803   19788       2   19782   19770   19785       2   19776   19794
   19782       2   19773   19788   19803       2   19773   19788   19809       2
   19773   19791   19812       2   19770   19764   19773       2   19770   19782
   19794       2   19770   19785   19803       2   19767   19764   19770       2
   19767   19764   19773       2   19767   19776   19794       2   19764   19767
   19776       2   19764   19770   19782       2   19764   19770   19785       2
   19764   19773   19788       2   19764   19773   19791       2   19959   19968
   19962       2   19953   19962   19968       2   19950   19941   19953       2
   19950   19959   19968       2   19944   19950   19959       2   19941   19950
   19944       2   19941   19950   19959       2   19941   19953   19962       2
   19935   19944   19950       2   19932   19917   19935       2   19932   19941
   19950       2   19932   19941   19953       2   19920   19932   19941       2
   19917   19932   19920       2   19917   19932   19941       2   19917   19935
   19944       2   19911   19896   19917       2   19899   19920   19932       2
   19896   19881   19899       2   19896   19917   19932       2   19896   19917
   19935       2   19893   19911   19896       2   19890   19878   19893       2
   19884   19902   19890       2   19881   19896   19911       2   19881   19896
   19917       2   19881   19899   19920       2   19878   19872   19881       2
   19878   19890   19902       2   19878   19893   19911       2   19875   19872
   19878       2   19875   19872   19881       2   19875   19884   19902       2
   19872   19875   19884       2   19872   19878   19890       2   19872   19878
   19893       2   19872   19881   19896       2   19872   19881   19899       2
   20067   20076   20070       2   20061   20070   20076       2   20058   20049
   20061       2   20058   20067   20076       2   20052   20058   20067       2
   20049   20058   20052       2   20049   20058   20067       2   20049   20061
   20070       2   20043   20052   20058       2   20040   20025   20043       2
   20040   20049   20058       2   20040   20049   20061       2   20028   20040
   20049       2   20025   20040   20028       2   20025   20040   20049       2
   20025   20043   20052       2   20019   20004   20025       2   20007   20028
   20040       2   20004   19989   20007       2   20004   20025   20040       2
   20004   20025   20043       2   20001   20019   20004       2   19998   19986
   20001       2   19992   20010   19998       2   19989   20004   20019       2
   19989   20004   20025       2   19989   20007   20028       2   19986   19980
   19989       2   19986   19998   20010       2   19986   20001   20019       2
   19983   19980   19986       2   19983   19980   19989       2   19983   19992
   20010       2   19980   19983   19992       2   19980   19986   19998       2
   19980   19986   20001       2   19980   19989   20004       2   19980   19989
   20007       2   20175   20184   20178       2   20169   20178   20184       2
   20166   20157   20169       2   20166   20175   20184       2   20160   20166
   20175       2   20157   20166   20160       2   20157   20166   20175       2
   20157   20169   20178       2   20151   20160   20166       2   20148   20133
   20151       2   20148   20157   20166       2   20148   20157   20169       2
   20136   20148   20157       2   20133   20148   20136       2   20133   20148
   20157       2   20133   20151   20160       2   20127   20112   20133       2
   20115   20136   20148       2   20112   20097   20115       2   20112   20133
   20148       2   20112   20133   20151       2   20109   20127   20112       2
   20106   20094   20109       2   20100   20118   20106       2   20097   20112
   20127       2   20097   20112   20133       2   20097   20115   20136       2
   20094   20088   20097       2   20094   20106   20118       2   20094   20109
   20127       2   20091   20088   20094       2   20091   20088   20097       2
   20091   20100   20118       2   20088   20091   20100       2   20088   20094
   20106       2   20088   20094   20109       2   20088   20097   20112       2
   20088   20097   20115       2   20283   20292   20286       2   20277   20286
   20292       2   20274   20265   20277       2   20274   20283   20292       2
   20268   20274   20283       2   20265   20274   20268       2   20265   20274
   20283       2   20265   20277   20286       2   20259   20268   20274       2
   20256   20241   20259       2   20256   20265   20274       2   20256   20265
   20277       2   20244   20256   20265       2   20241   20256   20244       2
   20241   20256   20265       2   20241   20259   20268       2   20235   20220
   20241       2   20223   20244   20256       2   20220   20205   20223       2
   20220   20241   20256       2   20220   20241   20259       2   20217   20235
   20220       2   20214   20202   20217       2   20208   20226   20214       2
   20205   20220   20235       2   20205   20220   20241       2   20205   20223
   20244       2   20202   20196   20205       2   20202   20214   20226       2
   20202   20217   20235       2   20199   20196   20202       2   20199   20196
   20205       2   20199   20208   20226       2   20196   20199   20208       2
   20196   20202   20214       2   20196   20202   20217       2   20196   20205
   20220       2   20196   20205   20223       2   20391   20400   20394       2
   20385   20394   20400       2   20382   20373   20385       2   20382   20391
   20400       2   20376   20382   20391       2   20373   20382   20376       2
   20373   20382   20391       2   20373   20385   20394       2   20367   20376
   20382       2   20364   20349   20367       2   20364   20373   20382       2
   20364   20373   20385       2   20352   20364   20373       2   20349   20364
   20352       2   20349   20364   20373       2   20349   20367   20376       2
   20343   20328   20349       2   20331   20352   20364       2   20328   20313
   20331       2   20328   20349   20364       2   20328   20349   20367       2
   20325   20343   20328       2   20322   20310   20325       2   20316   20334
   20322       2   20313   20328   20343       2   20313   20328   20349       2
   20313   20331   20352       2   20310   20304   20313       2   20310   20322
   20334       2   20310   20325   20343       2   20307   20304   20310       2
   20307   20304   20313       2   20307   20316   20334       2   20304   20307
   20316       2   20304   20310   20322       2   20304   20310   20325       2
   20304   20313   20328       2   20304   20313   20331       2   20499   20508
   20502       2   20493   20502   20508       2   20490   20481   20493       2
   20490   20499   20508       2   20484   20490   20499       2   20481   20490
   20484       2   20481   20490   20499       2   20481   20493   20502       2
   20475   20484   20490       2   20472   20457   20475       2   20472   20481
   20490       2   20472   20481   20493       2   20460   20472   20481       2
   20457   20472   20460       2   20457   20472   20481       2   20457   20475
   20484       2   20451   20436   20457       2   20439   20460   20472       2
   20436   20421   20439       2   20436   20457   20472       2   20436   20457
   20475       2   20433   20451   20436       2   20430   20418   20433       2
   20424   20442   20430       2   20421   20436   20451       2   20421   20436
   20457       2   20421   20439   20460       2   20418   20412   20421       2
   20418   20430   20442       2   20418   20433   20451       2   20415   20412
   20418       2   20415   20412   20421       2   20415   20424   20442       2
   20412   20415   20424       2   20412   20418   20430       2   20412   20418
   20433       2   20412   20421   20436       2   20412   20421   20439       2
   20607   20616   20610       2   20601   20610   20616       2   20598   20589
   20601       2   20598   20607   20616       2   20592   20598   20607       2
   20589   20598   20592       2   20589   20598   20607       2   20589   20601
   20610       2   20583   20592   20598       2   20580   20565   20583       2
   20580   20589   20598       2   20580   20589   20601       2   20568   20580
   20589       2   20565   20580   20568       2   20565   20580   20589       2
   20565   20583   20592       2   20559   20544   20565       2   20547   20568
   20580       2   20544   20529   20547       2   20544   20565   20580       2
   20544   20565   20583       2   20541   20559   20544       2   20538   20526
   20541       2   20532   20550   20538       2   20529   20544   20559       2
   20529   20544   20565       2   20529   20547   20568       2   20526   20520
   20529       2   20526   20538   20550       2   20526   20541   20559       2
   20523   20520   20526       2   20523   20520   20529       2   20523   20532
   20550       2   20520   20523   20532       2   20520   20526   20538       2
   20520   20526   20541       2   20520   20529   20544       2   20520   20529
   20547       2   20715   20724   20718       2   20709   20718   20724       2
   20706   20697   20709       2   20706   20715   20724       2   20700   20706
   20715       2   20697   20706   20700       2   20697   20706   20715       2
   20697   20709   20718       2   20691   20700   20706       2   20688   20673
   20691       2   20688   20697   20706       2   20688   20697   20709       2
   20676   20688   20697       2   20673   20688   20676       2   20673   20688
   20697       2   20673   20691   20700       2   20667   20652   20673       2
   20655   20676   20688       2   20652   20637   20655       2   20652   20673
   20688       2   20652   20673   20691       2   20649   20667   20652       2
   20646   20634   20649       2   20640   20658   20646       2   20637   20652
   20667       2   20637   20652   20673       2   20637   20655   20676       2
   20634   20628   20637       2   20634   20646   20658       2   20634   20649
   20667       2   20631   20628   20634       2   20631   20628   20637       2
   20631   20640   20658       2   20628   20631   20640       2   20628   20634
   20646       2   20628   20634   20649       2   20628   20637   20652       2
   20628   20637   20655       2   20823   20832   20826       2   20817   20826
   20832       2   20814   20805   20817       2   20814   20823   20832       2
   20808   20814   20823       2   20805   20814   20808       2   20805   20814
   20823       2   20805   20817   20826       2   20799   20808   20814       2
   20796   20781   20799       2   20796   20805   20814       2   20796   20805
   20817       2   20784   20796   20805       2   20781   20796   20784       2
   20781   20796   20805       2   20781   20799   20808       2   20775   20760
   20781       2   20763   20784   20796       2   20760   20745   20763       2
   20760   20781   20796       2   20760   20781   20799       2   20757   20775
   20760       2   20754   20742   20757       2   20748   20766   20754       2
   20745   20760   20775       2   20745   20760   20781       2   20745   20763
   20784       2   20742   20736   20745       2   20742   20754   20766       2
   20742   20757   20775       2   20739   20736   20742       2   20739   20736
   20745       2   20739   20748   20766       2   20736   20739   20748       2
   20736   20742   20754       2   20736   20742   20757       2   20736   20745
   20760       2   20736   20745   20763       2   20931   20940   20934       2
   20925   20934   20940       2   20922   20913   20925       2   20922   20931
   20940       2   20916   20922   20931       2   20913   20922   20916       2
   20913   20922   20931       2   20913   20925   20934       2   20907   20916
   20922       2   20904   20889   20907       2   20904   20913   20922       2
   20904   20913   20925       2   20892   20904   20913       2   20889   20904
   20892       2   20889   20904   20913       2   20889   20907   20916       2
   20883   20868   20889       2   20871   20892   20904       2   20868   20853
   20871       2   20868   20889   20904       2   20868   20889   20907       2
   20865   20883   20868       2   20862   20850   20865       2   20856   20874
   20862       2   20853   20868   20883       2   20853   20868   20889       2
   20853   20871   20892       2   20850   20844   20853       2   20850   20862
   20874       2   20850   20865   20883       2   20847   20844   20850       2
   20847   20844   20853       2   20847   20856   20874       2   20844   20847
   20856       2   20844   20850   20862       2   20844   20850   20865       2
   20844   20853   20868       2   20844   20853   20871       2   21039   21048
   21042       2   21033   21042   21048       2   21030   21021   21033       2
   21030   21039   21048       2   21024   21030   21039       2   21021   21030
   21024       2   21021   21030   21039       2   21021   21033   21042       2
   21015   21024   21030       2   21012   20997   21015       2   21012   21021
   21030       2   21012   21021   21033       2   21000   21012   21021       2
   20997   21012   21000       2   20997   21012   21021       2   20997   21015
   21024       2   20991   20976   20997       2   20979   21000   21012       2
   20976   20961   20979       2   20976   20997   21012       2   20976   20997
   21015       2   20973   20991   20976       2   20970   20958   20973       2
   20964   20982   20970       2   20961   20976   20991       2   20961   20976
   20997       2   20961   20979   21000       2   20958   20952   20961       2
   20958   20970   20982       2   20958   20973   20991       2   20955   20952
   20958       2   20955   20952   20961       2   20955   20964   20982       2
   20952   20955   20964       2   20952   20958   20970       2   20952   20958
   20973       2   20952   20961   20976       2   20952   20961   20979       2
   21147   21156   21150       2   21141   21150   21156       2   21138   21129
   21141       2   21138   21147   21156       2   21132   21138   21147       2
   21129   21138   21132       2   21129   21138   21147       2   21129   21141
   21150       2   21123   21132   21138       2   21120   21105   21123       2
   21120   21129   21138       2   21120   21129   21141       2   21108   21120
   21129       2   21105   21120   21108       2   21105   21120   21129       2
   21105   21123   21132       2   21099   21084   21105       2   21087   21108
   21120       2   21084   21069   21087       2   21084   21105   21120       2
   21084   21105   21123       2   21081   21099   21084       2   21078   21066
   21081       2   21072   21090   21078       2   21069   21084   21099       2
   21069   21084   21105       2   21069   21087   21108       2   21066   21060
   21069       2   21066   21078   21090       2   21066   21081   21099       2
   21063   21060   21066       2   21063   21060   21069       2   21063   21072
   21090       2   21060   21063   21072       2   21060   21066   21078       2
   21060   21066   21081       2   21060   21069   21084       2   21060   21069
   21087       2   21255   21264   21258       2   21249   21258   21264       2
   21246   21237   21249       2   21246   21255   21264       2   21240   21246
   21255       2   21237   21246   21240       2   21237   21246   21255       2
   21237   21249   21258       2   21231   21240   21246       2   21228   21213
   21231       2   21228   21237   21246       2   21228   21237   21249       2
   21216   21228   21237       2   21213   21228   21216       2   21213   21228
   21237       2   21213   21231   21240       2   21207   21192   21213       2
   21195   21216   21228       2   21192   21177   21195       2   21192   21213
   21228       2   21192   21213   21231       2   21189   21207   21192       2
   21186   21174   21189       2   21180   21198   21186       2   21177   21192
   21207       2   21177   21192   21213       2   21177   21195   21216       2
   21174   21168   21177       2   21174   21186   21198       2   21174   21189
   21207       2   21171   21168   21174       2   21171   21168   21177       2
   21171   21180   21198       2   21168   21171   21180       2   21168   21174
   21186       2   21168   21174   21189       2   21168   21177   21192       2
   21168   21177   21195       2   21363   21372   21366       2   21357   21366
   21372       2   21354   21345   21357       2   21354   21363   21372       2
   21348   21354   21363       2   21345   21354   21348       2   21345   21354
   21363       2   21345   21357   21366       2   21339   21348   21354       2
   21336   21321   21339       2   21336   21345   21354       2   21336   21345
   21357       2   21324   21336   21345       2   21321   21336   21324       2
   21321   21336   21345       2   21321   21339   21348       2   21315   21300
   21321       2   21303   21324   21336       2   21300   21285   21303       2
   21300   21321   21336       2   21300   21321   21339       2   21297   21315
   21300       2   21294   21282   21297       2   21288   21306   21294       2
   21285   21300   21315       2   21285   21300   21321       2   21285   21303
   21324       2   21282   21276   21285       2   21282   21294   21306       2
   21282   21297   21315       2   21279   21276   21282       2   21279   21276
   21285       2   21279   21288   21306       2   21276   21279   21288       2
   21276   21282   21294       2   21276   21282   21297       2   21276   21285
   21300       2   21276   21285   21303       2   21471   21480   21474       2
   21465   21474   21480       2   21462   21453   21465       2   21462   21471
   21480       2   21456   21462   21471       2   21453   21462   21456       2
   21453   21462   21471       2   21453   21465   21474       2   21447   21456
   21462       2   21444   21429   21447       2   21444   21453   21462       2
   21444   21453   21465       2   21432   21444   21453       2   21429   21444
   21432       2   21429   21444   21453       2   21429   21447   21456       2
   21423   21408   21429       2   21411   21432   21444       2   21408   21393
   21411       2   21408   21429   21444       2   21408   21429   21447       2
   21405   21423   21408       2   21402   21390   21405       2   21396   21414
   21402       2   21393   21408   21423       2   21393   21408   21429       2
   21393   21411   21432       2   21390   21384   21393       2   21390   21402
   21414       2   21390   21405   21423       2   21387   21384   21390       2
   21387   21384   21393       2   21387   21396   21414       2   21384   21387
   21396       2   21384   21390   21402       2   21384   21390   21405       2
   21384   21393   21408       2   21384   21393   21411       2   21579   21588
   21582       2   21573   21582   21588       2   21570   21561   21573       2
   21570   21579   21588       2   21564   21570   21579       2   21561   21570
   21564       2   21561   21570   21579       2   21561   21573   21582       2
   21555   21564   21570       2   21552   21537   21555       2   21552   21561
   21570       2   21552   21561   21573       2   21540   21552   21561       2
   21537   21552   21540       2   21537   21552   21561       2   21537   21555
   21564       2   21531   21516   21537       2   21519   21540   21552       2
   21516   21501   21519       2   21516   21537   21552       2   21516   21537
   21555       2   21513   21531   21516       2   21510   21498   21513       2
   21504   21522   21510       2   21501   21516   21531       2   21501   21516
   21537       2   21501   21519   21540       2   21498   21492   21501       2
   21498   21510   21522       2   21498   21513   21531       2   21495   21492
   21498       2   21495   21492   21501       2   21495   21504   21522       2
   21492   21495   21504       2   21492   21498   21510       2   21492   21498
   21513       2   21492   21501   21516       2   21492   21501   21519       2
   21687   21696   21690       2   21681   21690   21696       2   21678   21669
   21681       2   21678   21687   21696       2   21672   21678   21687       2
   21669   21678   21672       2   21669   21678   21687       2   21669   21681
   21690       2   21663   21672   21678       2   21660   21645   21663       2
   21660   21669   21678       2   21660   21669   21681       2   21648   21660
   21669       2   21645   21660   21648       2   21645   21660   21669       2
   21645   21663   21672       2   21639   21624   21645       2   21627   21648
   21660       2   21624   21609   21627       2   21624   21645   21660       2
   21624   21645   21663       2   21621   21639   21624       2   21618   21606
   21621       2   21612   21630   21618       2   21609   21624   21639       2
   21609   21624   21645       2   21609   21627   21648       2   21606   21600
   21609       2   21606   21618   21630       2   21606   21621   21639       2
   21603   21600   21606       2   21603   21600   21609       2   21603   21612
   21630       2   21600   21603   21612       2   21600   21606   21618       2
   21600   21606   21621       2   21600   21609   21624       2   21600   21609
   21627       2   21795   21804   21798       2   21789   21798   21804       2
   21786   21777   21789       2   21786   21795   21804       2   21780   21786
   21795       2   21777   21786   21780       2   21777   21786   21795       2
   21777   21789   21798       2   21771   21780   21786       2   21768   21753
   21771       2   21768   21777   21786       2   21768   21777   21789       2
   21756   21768   21777       2   21753   21768   21756       2   21753   21768
   21777       2   21753   21771   21780       2   21747   21732   21753       2
   21735   21756   21768       2   21732   21717   21735       2   21732   21753
   21768       2   21732   21753   21771       2   21729   21747   21732       2
   21726   21714   21729       2   21720   21738   21726       2   21717   21732
   21747       2   21717   21732   21753       2   21717   21735   21756       2
   21714   21708   21717       2   21714   21726   21738       2   21714   21729
   21747       2   21711   21708   21714       2   21711   21708   21717       2
   21711   21720   21738       2   21708   21711   21720       2   21708   21714
   21726       2   21708   21714   21729       2   21708   21717   21732       2
   21708   21717   21735       2   21903   21912   21906       2   21897   21906
   21912       2   21894   21885   21897       2   21894   21903   21912       2
   21888   21894   21903       2   21885   21894   21888       2   21885   21894
   21903       2   21885   21897   21906       2   21879   21888   21894       2
   21876   21861   21879       2   21876   21885   21894       2   21876   21885
   21897       2   21864   21876   21885       2   21861   21876   21864       2
   21861   21876   21885       2   21861   21879   21888       2   21855   21840
   21861       2   21843   21864   21876       2   21840   21825   21843       2
   21840   21861   21876       2   21840   21861   21879       2   21837   21855
   21840       2   21834   21822   21837       2   21828   21846   21834       2
   21825   21840   21855       2   21825   21840   21861       2   21825   21843
   21864       2   21822   21816   21825       2   21822   21834   21846       2
   21822   21837   21855       2   21819   21816   21822       2   21819   21816
   21825       2   21819   21828   21846       2   21816   21819   21828       2
   21816   21822   21834       2   21816   21822   21837       2   21816   21825
   21840       2   21816   21825   21843       2   22011   22020   22014       2
   22005   22014   22020       2   22002   21993   22005       2   22002   22011
   22020       2   21996   22002   22011       2   21993   22002   21996       2
   21993   22002   22011       2   21993   22005   22014       2   21987   21996
   22002       2   21984   21969   21987       2   21984   21993   22002       2
   21984   21993   22005       2   21972   21984   21993       2   21969   21984
   21972       2   21969   21984   21993       2   21969   21987   21996       2
   21963   21948   21969       2   21951   21972   21984       2   21948   21933
   21951       2   21948   21969   21984       2   21948   21969   21987       2
   21945   21963   21948       2   21942   21930   21945       2   21936   21954
   21942       2   21933   21948   21963       2   21933   21948   21969       2
   21933   21951   21972       2   21930   21924   21933       2   21930   21942
   21954       2   21930   21945   21963       2   21927   21924   21930       2
   21927   21924   21933       2   21927   21936   21954       2   21924   21927
   21936       2   21924   21930   21942       2   21924   21930   21945       2
   21924   21933   21948       2   21924   21933   21951       2   22119   22128
   22122       2   22113   22122   22128       2   22110   22101   22113       2
   22110   22119   22128       2   22104   22110   22119       2   22101   22110
   22104       2   22101   22110   22119       2   22101   22113   22122       2
   22095   22104   22110       2   22092   22077   22095       2   22092   22101
   22110       2   22092   22101   22113       2   22080   22092   22101       2
   22077   22092   22080       2   22077   22092   22101       2   22077   22095
   22104       2   22071   22056   22077       2   22059   22080   22092       2
   22056   22041   22059       2   22056   22077   22092       2   22056   22077
   22095       2   22053   22071   22056       2   22050   22038   22053       2
   22044   22062   22050       2   22041   22056   22071       2   22041   22056
   22077       2   22041   22059   22080       2   22038   22032   22041       2
   22038   22050   22062       2   22038   22053   22071       2   22035   22032
   22038       2   22035   22032   22041       2   22035   22044   22062       2
   22032   22035   22044       2   22032   22038   22050       2   22032   22038
   22053       2   22032   22041   22056       2   22032   22041   22059       2
   22227   22236   22230       2   22221   22230   22236       2   22218   22209
   22221       2   22218   22227   22236       2   22212   22218   22227       2
   22209   22218   22212       2   22209   22218   22227       2   22209   22221
   22230       2   22203   22212   22218       2   22200   22185   22203       2
   22200   22209   22218       2   22200   22209   22221       2   22188   22200
   22209       2   22185   22200   22188       2   22185   22200   22209       2
   22185   22203   22212       2   22179   22164   22185       2   22167   22188
   22200       2   22164   22149   22167       2   22164   22185   22200       2
   22164   22185   22203       2   22161   22179   22164       2   22158   22146
   22161       2   22152   22170   22158       2   22149   22164   22179       2
   22149   22164   22185       2   22149   22167   22188       2   22146   22140
   22149       2   22146   22158   22170       2   22146   22161   22179       2
   22143   22140   22146       2   22143   22140   22149       2   22143   22152
   22170       2   22140   22143   22152       2   22140   22146   22158       2
   22140   22146   22161       2   22140   22149   22164       2   22140   22149
   22167       2   22335   22344   22338       2   22329   22338   22344       2
   22326   22317   22329       2   22326   22335   22344       2   22320   22326
   22335       2   22317   22326   22320       2   22317   22326   22335       2
   22317   22329   22338       2   22311   22320   22326       2   22308   22293
   22311       2   22308   22317   22326       2   22308   22317   22329       2
   22296   22308   22317       2   22293   22308   22296       2   22293   22308
   22317       2   22293   22311   22320       2   22287   22272   22293       2
   22275   22296   22308       2   22272   22257   22275       2   22272   22293
   22308       2   22272   22293   22311       2   22269   22287   22272       2
   22266   22254   22269       2   22260   22278   22266       2   22257   22272
   22287       2   22257   22272   22293       2   22257   22275   22296       2
   22254   22248   22257       2   22254   22266   22278       2   22254   22269
   22287       2   22251   22248   22254       2   22251   22248   22257       2
   22251   22260   22278       2   22248   22251   22260       2   22248   22254
   22266       2   22248   22254   22269       2   22248   22257   22272       2
   22248   22257   22275       2   22443   22452   22446       2   22437   22446
   22452       2   22434   22425   22437       2   22434   22443   22452       2
   22428   22434   22443       2   22425   22434   22428       2   22425   22434
   22443       2   22425   22437   22446       2   22419   22428   22434       2
   22416   22401   22419       2   22416   22425   22434       2   22416   22425
   22437       2   22404   22416   22425       2   22401   22416   22404       2
   22401   22416   22425       2   22401   22419   22428       2   22395   22380
   22401       2   22383   22404   22416       2   22380   22365   22383       2
   22380   22401   22416       2   22380   22401   22419       2   22377   22395
   22380       2   22374   22362   22377       2   22368   22386   22374       2
   22365   22380   22395       2   22365   22380   22401       2   22365   22383
   22404       2   22362   22356   22365       2   22362   22374   22386       2
   22362   22377   22395       2   22359   22356   22362       2   22359   22356
   22365       2   22359   22368   22386       2   22356   22359   22368       2
   22356   22362   22374       2   22356   22362   22377       2   22356   22365
   22380       2   22356   22365   22383       2   22551   22560   22554       2
   22545   22554   22560       2   22542   22533   22545       2   22542   22551
   22560       2   22536   22542   22551       2   22533   22542   22536       2
   22533   22542   22551       2   22533   22545   22554       2   22527   22536
   22542       2   22524   22509   22527       2   22524   22533   22542       2
   22524   22533   22545       2   22512   22524   22533       2   22509   22524
   22512       2   22509   22524   22533       2   22509   22527   22536       2
   22503   22488   22509       2   22491   22512   22524       2   22488   22473
   22491       2   22488   22509   22524       2   22488   22509   22527       2
   22485   22503   22488       2   22482   22470   22485       2   22476   22494
   22482       2   22473   22488   22503       2   22473   22488   22509       2
   22473   22491   22512       2   22470   22464   22473       2   22470   22482
   22494       2   22470   22485   22503       2   22467   22464   22470       2
   22467   22464   22473       2   22467   22476   22494       2   22464   22467
   22476       2   22464   22470   22482       2   22464   22470   22485       2
   22464   22473   22488       2   22464   22473   22491       2   22659   22668
   22662       2   22653   22662   22668       2   22650   22641   22653       2
   22650   22659   22668       2   22644   22650   22659       2   22641   22650
   22644       2   22641   22650   22659       2   22641   22653   22662       2
   22635   22644   22650       2   22632   22617   22635       2   22632   22641
   22650       2   22632   22641   22653       2   22620   22632   22641       2
   22617   22632   22620       2   22617   22632   22641       2   22617   22635
   22644       2   22611   22596   22617       2   22599   22620   22632       2
   22596   22581   22599       2   22596   22617   22632       2   22596   22617
   22635       2   22593   22611   22596       2   22590   22578   22593       2
   22584   22602   22590       2   22581   22596   22611       2   22581   22596
   22617       2   22581   22599   22620       2   22578   22572   22581       2
   22578   22590   22602       2   22578   22593   22611       2   22575   22572
   22578       2   22575   22572   22581       2   22575   22584   22602       2
   22572   22575   22584       2   22572   22578   22590       2   22572   22578
   22593       2   22572   22581   22596       2   22572   22581   22599       2
   22767   22776   22770       2   22761   22770   22776       2   22758   22749
   22761       2   22758   22767   22776       2   22752   22758   22767       2
   22749   22758   22752       2   22749   22758   22767       2   22749   22761
   22770       2   22743   22752   22758       2   22740   22725   22743       2
   22740   22749   22758       2   22740   22749   22761       2   22728   22740
   22749       2   22725   22740   22728       2   22725   22740   22749       2
   22725   22743   22752       2   22719   22704   22725       2   22707   22728
   22740       2   22704   22689   22707       2   22704   22725   22740       2
   22704   22725   22743       2   22701   22719   22704       2   22698   22686
   22701       2   22692   22710   22698       2   22689   22704   22719       2
   22689   22704   22725       2   22689   22707   22728       2   22686   22680
   22689       2   22686   22698   22710       2   22686   22701   22719       2
   22683   22680   22686       2   22683   22680   22689       2   22683   22692
   22710       2   22680   22683   22692       2   22680   22686   22698       2
   22680   22686   22701       2   22680   22689   22704       2   22680   22689
   22707       2   22875   22884   22878       2   22869   22878   22884       2
   22866   22857   22869       2   22866   22875   22884       2   22860   22866
   22875       2   22857   22866   22860       2   22857   22866   22875       2
   22857   22869   22878       2   22851   22860   22866       2   22848   22833
   22851       2   22848   22857   22866       2   22848   22857   22869       2
   22836   22848   22857       2   22833   22848   22836       2   22833   22848
   22857       2   22833   22851   22860       2   22827   22812   22833       2
   22815   22836   22848       2   22812   22797   22815       2   22812   22833
   22848       2   22812   22833   22851       2   22809   22827   22812       2
   22806   22794   22809       2   22800   22818   22806       2   22797   22812
   22827       2   22797   22812   22833       2   22797   22815   22836       2
   22794   22788   22797       2   22794   22806   22818       2   22794   22809
   22827       2   22791   22788   22794       2   22791   22788   22797       2
   22791   22800   22818       2   22788   22791   22800       2   22788   22794
   22806       2   22788   22794   22809       2   22788   22797   22812       2
   22788   22797   22815       2   22983   22992   22986       2   22977   22986
   22992       2   22974   22965   22977       2   22974   22983   22992       2
   22968   22974   22983       2   22965   22974   22968       2   22965   22974
   22983       2   22965   22977   22986       2   22959   22968   22974       2
   22956   22941   22959       2   22956   22965   22974       2   22956   22965
   22977       2   22944   22956   22965       2   22941   22956   22944       2
   22941   22956   22965       2   22941   22959   22968       2   22935   22920
   22941       2   22923   22944   22956       2   22920   22905   22923       2
   22920   22941   22956       2   22920   22941   22959       2   22917   22935
   22920       2   22914   22902   22917       2   22908   22926   22914       2
   22905   22920   22935       2   22905   22920   22941       2   22905   22923
   22944       2   22902   22896   22905       2   22902   22914   22926       2
   22902   22917   22935       2   22899   22896   22902       2   22899   22896
   22905       2   22899   22908   22926       2   22896   22899   22908       2
   22896   22902   22914       2   22896   22902   22917       2   22896   22905
   22920       2   22896   22905   22923       2   23091   23100   23094       2
   23085   23094   23100       2   23082   23073   23085       2   23082   23091
   23100       2   23076   23082   23091       2   23073   23082   23076       2
   23073   23082   23091       2   23073   23085   23094       2   23067   23076
   23082       2   23064   23049   23067       2   23064   23073   23082       2
   23064   23073   23085       2   23052   23064   23073       2   23049   23064
   23052       2   23049   23064   23073       2   23049   23067   23076       2
   23043   23028   23049       2   23031   23052   23064       2   23028   23013
   23031       2   23028   23049   23064       2   23028   23049   23067       2
   23025   23043   23028       2   23022   23010   23025       2   23016   23034
   23022       2   23013   23028   23043       2   23013   23028   23049       2
   23013   23031   23052       2   23010   23004   23013       2   23010   23022
   23034       2   23010   23025   23043       2   23007   23004   23010       2
   23007   23004   23013       2   23007   23016   23034       2   23004   23007
   23016       2   23004   23010   23022       2   23004   23010   23025       2
   23004   23013   23028       2   23004   23013   23031       2   23199   23208
   23202       2   23193   23202   23208       2   23190   23181   23193       2
   23190   23199   23208       2   23184   23190   23199       2   23181   23190
   23184       2   23181   23190   23199       2   23181   23193   23202       2
   23175   23184   23190       2   23172   23157   23175       2   23172   23181
   23190       2   23172   23181   23193       2   23160   23172   23181       2
   23157   23172   23160       2   23157   23172   23181       2   23157   23175
   23184       2   23151   23136   23157       2   23139   23160   23172       2
   23136   23121   23139       2   23136   23157   23172       2   23136   23157
   23175       2   23133   23151   23136       2   23130   23118   23133       2
   23124   23142   23130       2   23121   23136   23151       2   23121   23136
   23157       2   23121   23139   23160       2   23118   23112   23121       2
   23118   23130   23142       2   23118   23133   23151       2   23115   23112
   23118       2   23115   23112   23121       2   23115   23124   23142       2
   23112   23115   23124       2   23112   23118   23130       2   23112   23118
   23133       2   23112   23121   23136       2   23112   23121   23139       2
   23307   23316   23310       2   23301   23310   23316       2   23298   23289
   23301       2   23298   23307   23316       2   23292   23298   23307       2
   23289   23298   23292       2   23289   23298   23307       2   23289   23301
   23310       2   23283   23292   23298       2   23280   23265   23283       2
   23280   23289   23298       2   23280   23289   23301       2   23268   23280
   23289       2   23265   23280   23268       2   23265   23280   23289       2
   23265   23283   23292       2   23259   23244   23265       2   23247   23268
   23280       2   23244   23229   23247       2   23244   23265   23280       2
   23244   23265   23283       2   23241   23259   23244       2   23238   23226
   23241       2   23232   23250   23238       2   23229   23244   23259       2
   23229   23244   23265       2   23229   23247   23268       2   23226   23220
   23229       2   23226   23238   23250       2   23226   23241   23259       2
   23223   23220   23226       2   23223   23220   23229       2   23223   23232
   23250       2   23220   23223   23232       2   23220   23226   23238       2
   23220   23226   23241       2   23220   23229   23244       2   23220   23229
   23247       2   23415   23424   23418       2   23409   23418   23424       2
   23406   23397   23409       2   23406   23415   23424       2   23400   23406
   23415       2   23397   23406   23400       2   23397   23406   23415       2
   23397   23409   23418       2   23391   23400   23406       2   23388   23373
   23391       2   23388   23397   23406       2   23388   23397   23409       2
   23376   23388   23397       2   23373   23388   23376       2   23373   23388
   23397       2   23373   23391   23400       2   23367   23352   23373       2
   23355   23376   23388       2   23352   23337   23355       2   23352   23373
   23388       2   23352   23373   23391       2   23349   23367   23352       2
   23346   23334   23349       2   23340   23358   23346       2   23337   23352
   23367       2   23337   23352   23373       2   23337   23355   23376       2
   23334   23328   23337       2   23334   23346   23358       2   23334   23349
   23367       2   23331   23328   23334       2   23331   23328   23337       2
   23331   23340   23358       2   23328   23331   23340       2   23328   23334
   23346       2   23328   23334   23349       2   23328   23337   23352       2
   23328   23337   23355       2   23523   23532   23526       2   23517   23526
   23532       2   23514   23505   23517       2   23514   23523   23532       2
   23508   23514   23523       2   23505   23514   23508       2   23505   23514
   23523       2   23505   23517   23526       2   23499   23508   23514       2
   23496   23481   23499       2   23496   23505   23514       2   23496   23505
   23517       2   23484   23496   23505       2   23481   23496   23484       2
   23481   23496   23505       2   23481   23499   23508       2   23475   23460
   23481       2   23463   23484   23496       2   23460   23445   23463       2
   23460   23481   23496       2   23460   23481   23499       2   23457   23475
   23460       2   23454   23442   23457       2   23448   23466   23454       2
   23445   23460   23475       2   23445   23460   23481       2   23445   23463
   23484       2   23442   23436   23445       2   23442   23454   23466       2
   23442   23457   23475       2   23439   23436   23442       2   23439   23436
   23445       2   23439   23448   23466       2   23436   23439   23448       2
   23436   23442   23454       2   23436   23442   23457       2   23436   23445
   23460       2   23436   23445   23463       2   23631   23640   23634       2
   23625   23634   23640       2   23622   23613   23625       2   23622   23631
   23640       2   23616   23622   23631       2   23613   23622   23616       2
   23613   23622   23631       2   23613   23625   23634       2   23607   23616
   23622       2   23604   23589   23607       2   23604   23613   23622       2
   23604   23613   23625       2   23592   23604   23613       2   23589   23604
   23592       2   23589   23604   23613       2   23589   23607   23616       2
   23583   23568   23589       2   23571   23592   23604       2   23568   23553
   23571       2   23568   23589   23604       2   23568   23589   23607       2
   23565   23583   23568       2   23562   23550   23565       2   23556   23574
   23562       2   23553   23568   23583       2   23553   23568   23589       2
   23553   23571   23592       2   23550   23544   23553       2   23550   23562
   23574       2   23550   23565   23583       2   23547   23544   23550       2
   23547   23544   23553       2   23547   23556   23574       2   23544   23547
   23556       2   23544   23550   23562       2   23544   23550   23565       2
   23544   23553   23568       2   23544   23553   23571       2   23739   23748
   23742       2   23733   23742   23748       2   23730   23721   23733       2
   23730   23739   23748       2   23724   23730   23739       2   23721   23730
   23724       2   23721   23730   23739       2   23721   23733   23742       2
   23715   23724   23730       2   23712   23697   23715       2   23712   23721
   23730       2   23712   23721   23733       2   23700   23712   23721       2
   23697   23712   23700       2   23697   23712   23721       2   23697   23715
   23724       2   23691   23676   23697       2   23679   23700   23712       2
   23676   23661   23679       2   23676   23697   23712       2   23676   23697
   23715       2   23673   23691   23676       2   23670   23658   23673       2
   23664   23682   23670       2   23661   23676   23691       2   23661   23676
   23697       2   23661   23679   23700       2   23658   23652   23661       2
   23658   23670   23682       2   23658   23673   23691       2   23655   23652
   23658       2   23655   23652   23661       2   23655   23664   23682       2
   23652   23655   23664       2   23652   23658   23670       2   23652   23658
   23673       2   23652   23661   23676       2   23652   23661   23679       2
   23847   23856   23850       2   23841   23850   23856       2   23838   23829
   23841       2   23838   23847   23856       2   23832   23838   23847       2
   23829   23838   23832       2   23829   23838   23847       2   23829   23841
   23850       2   23823   23832   23838       2   23820   23805   23823       2
   23820   23829   23838       2   23820   23829   23841       2   23808   23820
   23829       2   23805   23820   23808       2   23805   23820   23829       2
   23805   23823   23832       2   23799   23784   23805       2   23787   23808
   23820       2   23784   23769   23787       2   23784   23805   23820       2
   23784   23805   23823       2   23781   23799   23784       2   23778   23766
   23781       2   23772   23790   23778       2   23769   23784   23799       2
   23769   23784   23805       2   23769   23787   23808       2   23766   23760
   23769       2   23766   23778   23790       2   23766   23781   23799       2
   23763   23760   23766       2   23763   23760   23769       2   23763   23772
   23790       2   23760   23763   23772       2   23760   23766   23778       2
   23760   23766   23781       2   23760   23769   23784       2   23760   23769
   23787       2   23955   23964   23958       2   23949   23958   23964       2
   23946   23937   23949       2   23946   23955   23964       2   23940   23946
   23955       2   23937   23946   23940       2   23937   23946   23955       2
   23937   23949   23958       2   23931   23940   23946       2   23928   23913
   23931       2   23928   23937   23946       2   23928   23937   23949       2
   23916   23928   23937       2   23913   23928   23916       2   23913   23928
   23937       2   23913   23931   23940       2   23907   23892   23913       2
   23895   23916   23928       2   23892   23877   23895       2   23892   23913
   23928       2   23892   23913   23931       2   23889   23907   23892       2
   23886   23874   23889       2   23880   23898   23886       2   23877   23892
   23907       2   23877   23892   23913       2   23877   23895   23916       2
   23874   23868   23877       2   23874   23886   23898       2   23874   23889
   23907       2   23871   23868   23874       2   23871   23868   23877       2
   23871   23880   23898       2   23868   23871   23880       2   23868   23874
   23886       2   23868   23874   23889       2   23868   23877   23892       2
   23868   23877   23895       2   24063   24072   24066       2   24057   24066
   24072       2   24054   24045   24057       2   24054   24063   24072       2
   24048   24054   24063       2   24045   24054   24048       2   24045   24054
   24063       2   24045   24057   24066       2   24039   24048   24054       2
   24036   24021   24039       2   24036   24045   24054       2   24036   24045
   24057       2   24024   24036   24045       2   24021   24036   24024       2
   24021   24036   24045       2   24021   24039   24048       2   24015   24000
   24021       2   24003   24024   24036       2   24000   23985   24003       2
   24000   24021   24036       2   24000   24021   24039       2   23997   24015
   24000       2   23994   23982   23997       2   23988   24006   23994       2
   23985   24000   24015       2   23985   24000   24021       2   23985   24003
   24024       2   23982   23976   23985       2   23982   23994   24006       2
   23982   23997   24015       2   23979   23976   23982       2   23979   23976
   23985       2   23979   23988   24006       2   23976   23979   23988       2
   23976   23982   23994       2   23976   23982   23997       2   23976   23985
   24000       2   23976   23985   24003       2   24171   24180   24174       2
   24165   24174   24180       2   24162   24153   24165       2   24162   24171
   24180       2   24156   24162   24171       2   24153   24162   24156       2
   24153   24162   24171       2   24153   24165   24174       2   24147   24156
   24162       2   24144   24129   24147       2   24144   24153   24162       2
   24144   24153   24165       2   24132   24144   24153       2   24129   24144
   24132       2   24129   24144   24153       2   24129   24147   24156       2
   24123   24108   24129       2   24111   24132   24144       2   24108   24093
   24111       2   24108   24129   24144       2   24108   24129   24147       2
   24105   24123   24108       2   24102   24090   24105       2   24096   24114
   24102       2   24093   24108   24123       2   24093   24108   24129       2
   24093   24111   24132       2   24090   24084   24093       2   24090   24102
   24114       2   24090   24105   24123       2   24087   24084   24090       2
   24087   24084   24093       2   24087   24096   24114       2   24084   24087
   24096       2   24084   24090   24102       2   24084   24090   24105       2
   24084   24093   24108       2   24084   24093   24111       2   24279   24288
   24282       2   24273   24282   24288       2   24270   24261   24273       2
   24270   24279   24288       2   24264   24270   24279       2   24261   24270
   24264       2   24261   24270   24279       2   24261   24273   24282       2
   24255   24264   24270       2   24252   24237   24255       2   24252   24261
   24270       2   24252   24261   24273       2   24240   24252   24261       2
   24237   24252   24240       2   24237   24252   24261       2   24237   24255
   24264       2   24231   24216   24237       2   24219   24240   24252       2
   24216   24201   24219       2   24216   24237   24252       2   24216   24237
   24255       2   24213   24231   24216       2   24210   24198   24213       2
   24204   24222   24210       2   24201   24216   24231       2   24201   24216
   24237       2   24201   24219   24240       2   24198   24192   24201       2
   24198   24210   24222       2   24198   24213   24231       2   24195   24192
   24198       2   24195   24192   24201       2   24195   24204   24222       2
   24192   24195   24204       2   24192   24198   24210       2   24192   24198
   24213       2   24192   24201   24216       2   24192   24201   24219       2
   24387   24396   24390       2   24381   24390   24396       2   24378   24369
   24381       2   24378   24387   24396       2   24372   24378   24387       2
   24369   24378   24372       2   24369   24378   24387       2   24369   24381
   24390       2   24363   24372   24378       2   24360   24345   24363       2
   24360   24369   24378       2   24360   24369   24381       2   24348   24360
   24369       2   24345   24360   24348       2   24345   24360   24369       2
   24345   24363   24372       2   24339   24324   24345       2   24327   24348
   24360       2   24324   24309   24327       2   24324   24345   24360       2
   24324   24345   24363       2   24321   24339   24324       2   24318   24306
   24321       2   24312   24330   24318       2   24309   24324   24339       2
   24309   24324   24345       2   24309   24327   24348       2   24306   24300
   24309       2   24306   24318   24330       2   24306   24321   24339       2
   24303   24300   24306       2   24303   24300   24309       2   24303   24312
   24330       2   24300   24303   24312       2   24300   24306   24318       2
   24300   24306   24321       2   24300   24309   24324       2   24300   24309
   24327       2   24495   24504   24498       2   24489   24498   24504       2
   24486   24477   24489       2   24486   24495   24504       2   24480   24486
   24495       2   24477   24486   24480       2   24477   24486   24495       2
   24477   24489   24498       2   24471   24480   24486       2   24468   24453
   24471       2   24468   24477   24486       2   24468   24477   24489       2
   24456   24468   24477       2   24453   24468   24456       2   24453   24468
   24477       2   24453   24471   24480       2   24447   24432   24453       2
   24435   24456   24468       2   24432   24417   24435       2   24432   24453
   24468       2   24432   24453   24471       2   24429   24447   24432       2
   24426   24414   24429       2   24420   24438   24426       2   24417   24432
   24447       2   24417   24432   24453       2   24417   24435   24456       2
   24414   24408   24417       2   24414   24426   24438       2   24414   24429
   24447       2   24411   24408   24414       2   24411   24408   24417       2
   24411   24420   24438       2   24408   24411   24420       2   24408   24414
   24426       2   24408   24414   24429       2   24408   24417   24432       2
   24408   24417   24435       2   24603   24612   24606       2   24597   24606
   24612       2   24594   24585   24597       2   24594   24603   24612       2
   24588   24594   24603       2   24585   24594   24588       2   24585   24594
   24603       2   24585   24597   24606       2   24579   24588   24594       2
   24576   24561   24579       2   24576   24585   24594       2   24576   24585
   24597       2   24564   24576   24585       2   24561   24576   24564       2
   24561   24576   24585       2   24561   24579   24588       2   24555   24540
   24561       2   24543   24564   24576       2   24540   24525   24543       2
   24540   24561   24576       2   24540   24561   24579       2   24537   24555
   24540       2   24534   24522   24537       2   24528   24546   24534       2
   24525   24540   24555       2   24525   24540   24561       2   24525   24543
   24564       2   24522   24516   24525       2   24522   24534   24546       2
   24522   24537   24555       2   24519   24516   24522       2   24519   24516
   24525       2   24519   24528   24546       2   24516   24519   24528       2
   24516   24522   24534       2   24516   24522   24537       2   24516   24525
   24540       2   24516   24525   24543       2   24711   24720   24714       2
   24705   24714   24720       2   24702   24693   24705       2   24702   24711
   24720       2   24696   24702   24711       2   24693   24702   24696       2
   24693   24702   24711       2   24693   24705   24714       2   24687   24696
   24702       2   24684   24669   24687       2   24684   24693   24702       2
   24684   24693   24705       2   24672   24684   24693       2   24669   24684
   24672       2   24669   24684   24693       2   24669   24687   24696       2
   24663   24648   24669       2   24651   24672   24684       2   24648   24633
   24651       2   24648   24669   24684       2   24648   24669   24687       2
   24645   24663   24648       2   24642   24630   24645       2   24636   24654
   24642       2   24633   24648   24663       2   24633   24648   24669       2
   24633   24651   24672       2   24630   24624   24633       2   24630   24642
   24654       2   24630   24645   24663       2   24627   24624   24630       2
   24627   24624   24633       2   24627   24636   24654       2   24624   24627
   24636       2   24624   24630   24642       2   24624   24630   24645       2
   24624   24633   24648       2   24624   24633   24651       2   24819   24828
   24822       2   24813   24822   24828       2   24810   24801   24813       2
   24810   24819   24828       2   24804   24810   24819       2   24801   24810
   24804       2   24801   24810   24819       2   24801   24813   24822       2
   24795   24804   24810       2   24792   24777   24795       2   24792   24801
   24810       2   24792   24801   24813       2   24780   24792   24801       2
   24777   24792   24780       2   24777   24792   24801       2   24777   24795
   24804       2   24771   24756   24777       2   24759   24780   24792       2
   24756   24741   24759       2   24756   24777   24792       2   24756   24777
   24795       2   24753   24771   24756       2   24750   24738   24753       2
   24744   24762   24750       2   24741   24756   24771       2   24741   24756
   24777       2   24741   24759   24780       2   24738   24732   24741       2
   24738   24750   24762       2   24738   24753   24771       2   24735   24732
   24738       2   24735   24732   24741       2   24735   24744   24762       2
   24732   24735   24744       2   24732   24738   24750       2   24732   24738
   24753       2   24732   24741   24756       2   24732   24741   24759       2
   24927   24936   24930       2   24921   24930   24936       2   24918   24909
   24921       2   24918   24927   24936       2   24912   24918   24927       2
   24909   24918   24912       2   24909   24918   24927       2   24909   24921
   24930       2   24903   24912   24918       2   24900   24885   24903       2
   24900   24909   24918       2   24900   24909   24921       2   24888   24900
   24909       2   24885   24900   24888       2   24885   24900   24909       2
   24885   24903   24912       2   24879   24864   24885       2   24867   24888
   24900       2   24864   24849   24867       2   24864   24885   24900       2
   24864   24885   24903       2   24861   24879   24864       2   24858   24846
   24861       2   24852   24870   24858       2   24849   24864   24879       2
   24849   24864   24885       2   24849   24867   24888       2   24846   24840
   24849       2   24846   24858   24870       2   24846   24861   24879       2
   24843   24840   24846       2   24843   24840   24849       2   24843   24852
   24870       2   24840   24843   24852       2   24840   24846   24858       2
   24840   24846   24861       2   24840   24849   24864       2   24840   24849
   24867       2   25035   25044   25038       2   25029   25038   25044       2
   25026   25017   25029       2   25026   25035   25044       2   25020   25026
   25035       2   25017   25026   25020       2   25017   25026   25035       2
   25017   25029   25038       2   25011   25020   25026       2   25008   24993
   25011       2   25008   25017   25026       2   25008   25017   25029       2
   24996   25008   25017       2   24993   25008   24996       2   24993   25008
   25017       2   24993   25011   25020       2   24987   24972   24993       2
   24975   24996   25008       2   24972   24957   24975       2   24972   24993
   25008       2   24972   24993   25011       2   24969   24987   24972       2
   24966   24954   24969       2   24960   24978   24966       2   24957   24972
   24987       2   24957   24972   24993       2   24957   24975   24996       2
   24954   24948   24957       2   24954   24966   24978       2   24954   24969
   24987       2   24951   24948   24954       2   24951   24948   24957       2
   24951   24960   24978       2   24948   24951   24960       2   24948   24954
   24966       2   24948   24954   24969       2   24948   24957   24972       2
   24948   24957   24975       2   25143   25152   25146       2   25137   25146
   25152       2   25134   25125   25137       2   25134   25143   25152       2
   25128   25134   25143       2   25125   25134   25128       2   25125   25134
   25143       2   25125   25137   25146       2   25119   25128   25134       2
   25116   25101   25119       2   25116   25125   25134       2   25116   25125
   25137       2   25104   25116   25125       2   25101   25116   25104       2
   25101   25116   25125       2   25101   25119   25128       2   25095   25080
   25101       2   25083   25104   25116       2   25080   25065   25083       2
   25080   25101   25116       2   25080   25101   25119       2   25077   25095
   25080       2   25074   25062   25077       2   25068   25086   25074       2
   25065   25080   25095       2   25065   25080   25101       2   25065   25083
   25104       2   25062   25056   25065       2   25062   25074   25086       2
   25062   25077   25095       2   25059   25056   25062       2   25059   25056
   25065       2   25059   25068   25086       2   25056   25059   25068       2
   25056   25062   25074       2   25056   25062   25077       2   25056   25065
   25080       2   25056   25065   25083       2   25251   25260   25254       2
   25245   25254   25260       2   25242   25233   25245       2   25242   25251
   25260       2   25236   25242   25251       2   25233   25242   25236       2
   25233   25242   25251       2   25233   25245   25254       2   25227   25236
   25242       2   25224   25209   25227       2   25224   25233   25242       2
   25224   25233   25245       2   25212   25224   25233       2   25209   25224
   25212       2   25209   25224   25233       2   25209   25227   25236       2
   25203   25188   25209       2   25191   25212   25224       2   25188   25173
   25191       2   25188   25209   25224       2   25188   25209   25227       2
   25185   25203   25188       2   25182   25170   25185       2   25176   25194
   25182       2   25173   25188   25203       2   25173   25188   25209       2
   25173   25191   25212       2   25170   25164   25173       2   25170   25182
   25194       2   25170   25185   25203       2   25167   25164   25170       2
   25167   25164   25173       2   25167   25176   25194       2   25164   25167
   25176       2   25164   25170   25182       2   25164   25170   25185       2
   25164   25173   25188       2   25164   25173   25191       2   25359   25368
   25362       2   25353   25362   25368       2   25350   25341   25353       2
   25350   25359   25368       2   25344   25350   25359       2   25341   25350
   25344       2   25341   25350   25359       2   25341   25353   25362       2
   25335   25344   25350       2   25332   25317   25335       2   25332   25341
   25350       2   25332   25341   25353       2   25320   25332   25341       2
   25317   25332   25320       2   25317   25332   25341       2   25317   25335
   25344       2   25311   25296   25317       2   25299   25320   25332       2
   25296   25281   25299       2   25296   25317   25332       2   25296   25317
   25335       2   25293   25311   25296       2   25290   25278   25293       2
   25284   25302   25290       2   25281   25296   25311       2   25281   25296
   25317       2   25281   25299   25320       2   25278   25272   25281       2
   25278   25290   25302       2   25278   25293   25311       2   25275   25272
   25278       2   25275   25272   25281       2   25275   25284   25302       2
   25272   25275   25284       2   25272   25278   25290       2   25272   25278
   25293       2   25272   25281   25296       2   25272   25281   25299       2
   25467   25476   25470       2   25461   25470   25476       2   25458   25449
   25461       2   25458   25467   25476       2   25452   25458   25467       2
   25449   25458   25452       2   25449   25458   25467       2   25449   25461
   25470       2   25443   25452   25458       2   25440   25425   25443       2
   25440   25449   25458       2   25440   25449   25461       2   25428   25440
   25449       2   25425   25440   25428       2   25425   25440   25449       2
   25425   25443   25452       2   25419   25404   25425       2   25407   25428
   25440       2   25404   25389   25407       2   25404   25425   25440       2
   25404   25425   25443       2   25401   25419   25404       2   25398   25386
   25401       2   25392   25410   25398       2   25389   25404   25419       2
   25389   25404   25425       2   25389   25407   25428       2   25386   25380
   25389       2   25386   25398   25410       2   25386   25401   25419       2
   25383   25380   25386       2   25383   25380   25389       2   25383   25392
   25410       2   25380   25383   25392       2   25380   25386   25398       2
   25380   25386   25401       2   25380   25389   25404       2   25380   25389
   25407       2   25575   25584   25578       2   25569   25578   25584       2
   25566   25557   25569       2   25566   25575   25584       2   25560   25566
   25575       2   25557   25566   25560       2   25557   25566   25575       2
   25557   25569   25578       2   25551   25560   25566       2   25548   25533
   25551       2   25548   25557   25566       2   25548   25557   25569       2
   25536   25548   25557       2   25533   25548   25536       2   25533   25548
   25557       2   25533   25551   25560       2   25527   25512   25533       2
   25515   25536   25548       2   25512   25497   25515       2   25512   25533
   25548       2   25512   25533   25551       2   25509   25527   25512       2
   25506   25494   25509       2   25500   25518   25506       2   25497   25512
   25527       2   25497   25512   25533       2   25497   25515   25536       2
   25494   25488   25497       2   25494   25506   25518       2   25494   25509
   25527       2   25491   25488   25494       2   25491   25488   25497       2
   25491   25500   25518       2   25488   25491   25500       2   25488   25494
   25506       2   25488   25494   25509       2   25488   25497   25512       2
   25488   25497   25515       2   25683   25692   25686       2   25677   25686
   25692       2   25674   25665   25677       2   25674   25683   25692       2
   25668   25674   25683       2   25665   25674   25668       2   25665   25674
   25683       2   25665   25677   25686       2   25659   25668   25674       2
   25656   25641   25659       2   25656   25665   25674       2   25656   25665
   25677       2   25644   25656   25665       2   25641   25656   25644       2
   25641   25656   25665       2   25641   25659   25668       2   25635   25620
   25641       2   25623   25644   25656       2   25620   25605   25623       2
   25620   25641   25656       2   25620   25641   25659       2   25617   25635
   25620       2   25614   25602   25617       2   25608   25626   25614       2
   25605   25620   25635       2   25605   25620   25641       2   25605   25623
   25644       2   25602   25596   25605       2   25602   25614   25626       2
   25602   25617   25635       2   25599   25596   25602       2   25599   25596
   25605       2   25599   25608   25626       2   25596   25599   25608       2
   25596   25602   25614       2   25596   25602   25617       2   25596   25605
   25620       2   25596   25605   25623       2   25791   25800   25794       2
   25785   25794   25800       2   25782   25773   25785       2   25782   25791
   25800       2   25776   25782   25791       2   25773   25782   25776       2
   25773   25782   25791       2   25773   25785   25794       2   25767   25776
   25782       2   25764   25749   25767       2   25764   25773   25782       2
   25764   25773   25785       2   25752   25764   25773       2   25749   25764
   25752       2   25749   25764   25773       2   25749   25767   25776       2
   25743   25728   25749       2   25731   25752   25764       2   25728   25713
   25731       2   25728   25749   25764       2   25728   25749   25767       2
   25725   25743   25728       2   25722   25710   25725       2   25716   25734
   25722       2   25713   25728   25743       2   25713   25728   25749       2
   25713   25731   25752       2   25710   25704   25713       2   25710   25722
   25734       2   25710   25725   25743       2   25707   25704   25710       2
   25707   25704   25713       2   25707   25716   25734       2   25704   25707
   25716       2   25704   25710   25722       2   25704   25710   25725       2
   25704   25713   25728       2   25704   25713   25731       2   25899   25908
   25902       2   25893   25902   25908       2   25890   25881   25893       2
   25890   25899   25908       2   25884   25890   25899       2   25881   25890
   25884       2   25881   25890   25899       2   25881   25893   25902       2
   25875   25884   25890       2   25872   25857   25875       2   25872   25881
   25890       2   25872   25881   25893       2   25860   25872   25881       2
   25857   25872   25860       2   25857   25872   25881       2   25857   25875
   25884       2   25851   25836   25857       2   25839   25860   25872       2
   25836   25821   25839       2   25836   25857   25872       2   25836   25857
   25875       2   25833   25851   25836       2   25830   25818   25833       2
   25824   25842   25830       2   25821   25836   25851       2   25821   25836
   25857       2   25821   25839   25860       2   25818   25812   25821       2
   25818   25830   25842       2   25818   25833   25851       2   25815   25812
   25818       2   25815   25812   25821       2   25815   25824   25842       2
   25812   25815   25824       2   25812   25818   25830       2   25812   25818
   25833       2   25812   25821   25836       2   25812   25821   25839       2
   26007   26016   26010       2   26001   26010   26016       2   25998   25989
   26001       2   25998   26007   26016       2   25992   25998   26007       2
   25989   25998   25992       2   25989   25998   26007       2   25989   26001
   26010       2   25983   25992   25998       2   25980   25965   25983       2
   25980   25989   25998       2   25980   25989   26001       2   25968   25980
   25989       2   25965   25980   25968       2   25965   25980   25989       2
   25965   25983   25992       2   25959   25944   25965       2   25947   25968
   25980       2   25944   25929   25947       2   25944   25965   25980       2
   25944   25965   25983       2   25941   25959   25944       2   25938   25926
   25941       2   25932   25950   25938       2   25929   25944   25959       2
   25929   25944   25965       2   25929   25947   25968       2   25926   25920
   25929       2   25926   25938   25950       2   25926   25941   25959       2
   25923   25920   25926       2   25923   25920   25929       2   25923   25932
   25950       2   25920   25923   25932       2   25920   25926   25938       2
   25920   25926   25941       2   25920   25929   25944       2   25920   25929
   25947       2   26115   26124   26118       2   26109   26118   26124       2
   26106   26097   26109       2   26106   26115   26124       2   26100   26106
   26115       2   26097   26106   26100       2   26097   26106   26115       2
   26097   26109   26118       2   26091   26100   26106       2   26088   26073
   26091       2   26088   26097   26106       2   26088   26097   26109       2
   26076   26088   26097       2   26073   26088   26076       2   26073   26088
   26097       2   26073   26091   26100       2   26067   26052   26073       2
   26055   26076   26088       2   26052   26037   26055       2   26052   26073
   26088       2   26052   26073   26091       2   26049   26067   26052       2
   26046   26034   26049       2   26040   26058   26046       2   26037   26052
   26067       2   26037   26052   26073       2   26037   26055   26076       2
   26034   26028   26037       2   26034   26046   26058       2   26034   26049
   26067       2   26031   26028   26034       2   26031   26028   26037       2
   26031   26040   26058       2   26028   26031   26040       2   26028   26034
   26046       2   26028   26034   26049       2   26028   26037   26052       2
   26028   26037   26055       2   26223   26232   26226       2   26217   26226
   26232       2   26214   26205   26217       2   26214   26223   26232       2
   26208   26214   26223       2   26205   26214   26208       2   26205   26214
   26223       2   26205   26217   26226       2   26199   26208   26214       2
   26196   26181   26199       2   26196   26205   26214       2   26196   26205
   26217       2   26184   26196   26205       2   26181   26196   26184       2
   26181   26196   26205       2   26181   26199   26208       2   26175   26160
   26181       2   26163   26184   26196       2   26160   26145   26163       2
   26160   26181   26196       2   26160   26181   26199       2   26157   26175
   26160       2   26154   26142   26157       2   26148   26166   26154       2
   26145   26160   26175       2   26145   26160   26181       2   26145   26163
   26184       2   26142   26136   26145       2   26142   26154   26166       2
   26142   26157   26175       2   26139   26136   26142       2   26139   26136
   26145       2   26139   26148   26166       2   26136   26139   26148       2
   26136   26142   26154       2   26136   26142   26157       2   26136   26145
   26160       2   26136   26145   26163       2   26331   26340   26334       2
   26325   26334   26340       2   26322   26313   26325       2   26322   26331
   26340       2   26316   26322   26331       2   26313   26322   26316       2
   26313   26322   26331       2   26313   26325   26334       2   26307   26316
   26322       2   26304   26289   26307       2   26304   26313   26322       2
   26304   26313   26325       2   26292   26304   26313       2   26289   26304
   26292       2   26289   26304   26313       2   26289   26307   26316       2
   26283   26268   26289       2   26271   26292   26304       2   26268   26253
   26271       2   26268   26289   26304       2   26268   26289   26307       2
   26265   26283   26268       2   26262   26250   26265       2   26256   26274
   26262       2   26253   26268   26283       2   26253   26268   26289       2
   26253   26271   26292       2   26250   26244   26253       2   26250   26262
   26274       2   26250   26265   26283       2   26247   26244   26250       2
   26247   26244   26253       2   26247   26256   26274       2   26244   26247
   26256       2   26244   26250   26262       2   26244   26250   26265       2
   26244   26253   26268       2   26244   26253   26271       2   26439   26448
   26442       2   26433   26442   26448       2   26430   26421   26433       2
   26430   26439   26448       2   26424   26430   26439       2   26421   26430
   26424       2   26421   26430   26439       2   26421   26433   26442       2
   26415   26424   26430       2   26412   26397   26415       2   26412   26421
   26430       2   26412   26421   26433       2   26400   26412   26421       2
   26397   26412   26400       2   26397   26412   26421       2   26397   26415
   26424       2   26391   26376   26397       2   26379   26400   26412       2
   26376   26361   26379       2   26376   26397   26412       2   26376   26397
   26415       2   26373   26391   26376       2   26370   26358   26373       2
   26364   26382   26370       2   26361   26376   26391       2   26361   26376
   26397       2   26361   26379   26400       2   26358   26352   26361       2
   26358   26370   26382       2   26358   26373   26391       2   26355   26352
   26358       2   26355   26352   26361       2   26355   26364   26382       2
   26352   26355   26364       2   26352   26358   26370       2   26352   26358
   26373       2   26352   26361   26376       2   26352   26361   26379       2
   26547   26556   26550       2   26541   26550   26556       2   26538   26529
   26541       2   26538   26547   26556       2   26532   26538   26547       2
   26529   26538   26532       2   26529   26538   26547       2   26529   26541
   26550       2   26523   26532   26538       2   26520   26505   26523       2
   26520   26529   26538       2   26520   26529   26541       2   26508   26520
   26529       2   26505   26520   26508       2   26505   26520   26529       2
   26505   26523   26532       2   26499   26484   26505       2   26487   26508
   26520       2   26484   26469   26487       2   26484   26505   26520       2
   26484   26505   26523       2   26481   26499   26484       2   26478   26466
   26481       2   26472   26490   26478       2   26469   26484   26499       2
   26469   26484   26505       2   26469   26487   26508       2   26466   26460
   26469       2   26466   26478   26490       2   26466   26481   26499       2
   26463   26460   26466       2   26463   26460   26469       2   26463   26472
   26490       2   26460   26463   26472       2   26460   26466   26478       2
   26460   26466   26481       2   26460   26469   26484       2   26460   26469
   26487       2   26655   26664   26658       2   26649   26658   26664       2
   26646   26637   26649       2   26646   26655   26664       2   26640   26646
   26655       2   26637   26646   26640       2   26637   26646   26655       2
   26637   26649   26658       2   26631   26640   26646       2   26628   26613
   26631       2   26628   26637   26646       2   26628   26637   26649       2
   26616   26628   26637       2   26613   26628   26616       2   26613   26628
   26637       2   26613   26631   26640       2   26607   26592   26613       2
   26595   26616   26628       2   26592   26577   26595       2   26592   26613
   26628       2   26592   26613   26631       2   26589   26607   26592       2
   26586   26574   26589       2   26580   26598   26586       2   26577   26592
   26607       2   26577   26592   26613       2   26577   26595   26616       2
   26574   26568   26577       2   26574   26586   26598       2   26574   26589
   26607       2   26571   26568   26574       2   26571   26568   26577       2
   26571   26580   26598       2   26568   26571   26580       2   26568   26574
   26586       2   26568   26574   26589       2   26568   26577   26592       2
   26568   26577   26595       2   26763   26772   26766       2   26757   26766
   26772       2   26754   26745   26757       2   26754   26763   26772       2
   26748   26754   26763       2   26745   26754   26748       2   26745   26754
   26763       2   26745   26757   26766       2   26739   26748   26754       2
   26736   26721   26739       2   26736   26745   26754       2   26736   26745
   26757       2   26724   26736   26745       2   26721   26736   26724       2
   26721   26736   26745       2   26721   26739   26748       2   26715   26700
   26721       2   26703   26724   26736       2   26700   26685   26703       2
   26700   26721   26736       2   26700   26721   26739       2   26697   26715
   26700       2   26694   26682   26697       2   26688   26706   26694       2
   26685   26700   26715       2   26685   26700   26721       2   26685   26703
   26724       2   26682   26676   26685       2   26682   26694   26706       2
   26682   26697   26715       2   26679   26676   26682       2   26679   26676
   26685       2   26679   26688   26706       2   26676   26679   26688       2
   26676   26682   26694       2   26676   26682   26697       2   26676   26685
   26700       2   26676   26685   26703       2   26871   26880   26874       2
   26865   26874   26880       2   26862   26853   26865       2   26862   26871
   26880       2   26856   26862   26871       2   26853   26862   26856       2
   26853   26862   26871       2   26853   26865   26874       2   26847   26856
   26862       2   26844   26829   26847       2   26844   26853   26862       2
   26844   26853   26865       2   26832   26844   26853       2   26829   26844
   26832       2   26829   26844   26853       2   26829   26847   26856       2
   26823   26808   26829       2   26811   26832   26844       2   26808   26793
   26811       2   26808   26829   26844       2   26808   26829   26847       2
   26805   26823   26808       2   26802   26790   26805       2   26796   26814
   26802       2   26793   26808   26823       2   26793   26808   26829       2
   26793   26811   26832       2   26790   26784   26793       2   26790   26802
   26814       2   26790   26805   26823       2   26787   26784   26790       2
   26787   26784   26793       2   26787   26796   26814       2   26784   26787
   26796       2   26784   26790   26802       2   26784   26790   26805       2
   26784   26793   26808       2   26784   26793   26811       2   26979   26988
   26982       2   26973   26982   26988       2   26970   26961   26973       2
   26970   26979   26988       2   26964   26970   26979       2   26961   26970
   26964       2   26961   26970   26979       2   26961   26973   26982       2
   26955   26964   26970       2   26952   26937   26955       2   26952   26961
   26970       2   26952   26961   26973       2   26940   26952   26961       2
   26937   26952   26940       2   26937   26952   26961       2   26937   26955
   26964       2   26931   26916   26937       2   26919   26940   26952       2
   26916   26901   26919       2   26916   26937   26952       2   26916   26937
   26955       2   26913   26931   26916       2   26910   26898   26913       2
   26904   26922   26910       2   26901   26916   26931       2   26901   26916
   26937       2   26901   26919   26940       2   26898   26892   26901       2
   26898   26910   26922       2   26898   26913   26931       2   26895   26892
   26898       2   26895   26892   26901       2   26895   26904   26922       2
   26892   26895   26904       2   26892   26898   26910       2   26892   26898
   26913       2   26892   26901   26916       2   26892   26901   26919       2
   27087   27096   27090       2   27081   27090   27096       2   27078   27069
   27081       2   27078   27087   27096       2   27072   27078   27087       2
   27069   27078   27072       2   27069   27078   27087       2   27069   27081
   27090       2   27063   27072   27078       2   27060   27045   27063       2
   27060   27069   27078       2   27060   27069   27081       2   27048   27060
   27069       2   27045   27060   27048       2   27045   27060   27069       2
   27045   27063   27072       2   27039   27024   27045       2   27027   27048
   27060       2   27024   27009   27027       2   27024   27045   27060       2
   27024   27045   27063       2   27021   27039   27024       2   27018   27006
   27021       2   27012   27030   27018       2   27009   27024   27039       2
   27009   27024   27045       2   27009   27027   27048       2   27006   27000
   27009       2   27006   27018   27030       2   27006   27021   27039       2
   27003   27000   27006       2   27003   27000   27009       2   27003   27012
   27030       2   27000   27003   27012       2   27000   27006   27018       2
   27000   27006   27021       2   27000   27009   27024       2   27000   27009
   27027       2   27195   27204   27198       2   27189   27198   27204       2
   27186   27177   27189       2   27186   27195   27204       2   27180   27186
   27195       2   27177   27186   27180       2   27177   27186   27195       2
   27177   27189   27198       2   27171   27180   27186       2   27168   27153
   27171       2   27168   27177   27186       2   27168   27177   27189       2
   27156   27168   27177       2   27153   27168   27156       2   27153   27168
   27177       2   27153   27171   27180       2   27147   27132   27153       2
   27135   27156   27168       2   27132   27117   27135       2   27132   27153
   27168       2   27132   27153   27171       2   27129   27147   27132       2
   27126   27114   27129       2   27120   27138   27126       2   27117   27132
   27147       2   27117   27132   27153       2   27117   27135   27156       2
   27114   27108   27117       2   27114   27126   27138       2   27114   27129
   27147       2   27111   27108   27114       2   27111   27108   27117       2
   27111   27120   27138       2   27108   27111   27120       2   27108   27114
   27126       2   27108   27114   27129       2   27108   27117   27132       2
   27108   27117   27135       2   27303   27312   27306       2   27297   27306
   27312       2   27294   27285   27297       2   27294   27303   27312       2
   27288   27294   27303       2   27285   27294   27288       2   27285   27294
   27303       2   27285   27297   27306       2   27279   27288   27294       2
   27276   27261   27279       2   27276   27285   27294       2   27276   27285
   27297       2   27264   27276   27285       2   27261   27276   27264       2
   27261   27276   27285       2   27261   27279   27288       2   27255   27240
   27261       2   27243   27264   27276       2   27240   27225   27243       2
   27240   27261   27276       2   27240   27261   27279       2   27237   27255
   27240       2   27234   27222   27237       2   27228   27246   27234       2
   27225   27240   27255       2   27225   27240   27261       2   27225   27243
   27264       2   27222   27216   27225       2   27222   27234   27246       2
   27222   27237   27255       2   27219   27216   27222       2   27219   27216
   27225       2   27219   27228   27246       2   27216   27219   27228       2
   27216   27222   27234       2   27216   27222   27237       2   27216   27225
   27240       2   27216   27225   27243       2   27411   27420   27414       2
   27405   27414   27420       2   27402   27393   27405       2   27402   27411
   27420       2   27396   27402   27411       2   27393   27402   27396       2
   27393   27402   27411       2   27393   27405   27414       2   27387   27396
   27402       2   27384   27369   27387       2   27384   27393   27402       2
   27384   27393   27405       2   27372   27384   27393       2   27369   27384
   27372       2   27369   27384   27393       2   27369   27387   27396       2
   27363   27348   27369       2   27351   27372   27384       2   27348   27333
   27351       2   27348   27369   27384       2   27348   27369   27387       2
   27345   27363   27348       2   27342   27330   27345       2   27336   27354
   27342       2   27333   27348   27363       2   27333   27348   27369       2
   27333   27351   27372       2   27330   27324   27333       2   27330   27342
   27354       2   27330   27345   27363       2   27327   27324   27330       2
   27327   27324   27333       2   27327   27336   27354       2   27324   27327
   27336       2   27324   27330   27342       2   27324   27330   27345       2
   27324   27333   27348       2   27324   27333   27351       2   27519   27528
   27522       2   27513   27522   27528       2   27510   27501   27513       2
   27510   27519   27528       2   27504   27510   27519       2   27501   27510
   27504       2   27501   27510   27519       2   27501   27513   27522       2
   27495   27504   27510       2   27492   27477   27495       2   27492   27501
   27510       2   27492   27501   27513       2   27480   27492   27501       2
   27477   27492   27480       2   27477   27492   27501       2   27477   27495
   27504       2   27471   27456   27477       2   27459   27480   27492       2
   27456   27441   27459       2   27456   27477   27492       2   27456   27477
   27495       2   27453   27471   27456       2   27450   27438   27453       2
   27444   27462   27450       2   27441   27456   27471       2   27441   27456
   27477       2   27441   27459   27480       2   27438   27432   27441       2
   27438   27450   27462       2   27438   27453   27471       2   27435   27432
   27438       2   27435   27432   27441       2   27435   27444   27462       2
   27432   27435   27444       2   27432   27438   27450       2   27432   27438
   27453       2   27432   27441   27456       2   27432   27441   27459       2
   27627   27636   27630       2   27621   27630   27636       2   27618   27609
   27621       2   27618   27627   27636       2   27612   27618   27627       2
   27609   27618   27612       2   27609   27618   27627       2   27609   27621
   27630       2   27603   27612   27618       2   27600   27585   27603       2
   27600   27609   27618       2   27600   27609   27621       2   27588   27600
   27609       2   27585   27600   27588       2   27585   27600   27609       2
   27585   27603   27612       2   27579   27564   27585       2   27567   27588
   27600       2   27564   27549   27567       2   27564   27585   27600       2
   27564   27585   27603       2   27561   27579   27564       2   27558   27546
   27561       2   27552   27570   27558       2   27549   27564   27579       2
   27549   27564   27585       2   27549   27567   27588       2   27546   27540
   27549       2   27546   27558   27570       2   27546   27561   27579       2
   27543   27540   27546       2   27543   27540   27549       2   27543   27552
   27570       2   27540   27543   27552       2   27540   27546   27558       2
   27540   27546   27561       2   27540   27549   27564       2   27540   27549
   27567       2   27735   27744   27738       2   27729   27738   27744       2
   27726   27717   27729       2   27726   27735   27744       2   27720   27726
   27735       2   27717   27726   27720       2   27717   27726   27735       2
   27717   27729   27738       2   27711   27720   27726       2   27708   27693
   27711       2   27708   27717   27726       2   27708   27717   27729       2
   27696   27708   27717       2   27693   27708   27696       2   27693   27708
   27717       2   27693   27711   27720       2   27687   27672   27693       2
   27675   27696   27708       2   27672   27657   27675       2   27672   27693
   27708       2   27672   27693   27711       2   27669   27687   27672       2
   27666   27654   27669       2   27660   27678   27666       2   27657   27672
   27687       2   27657   27672   27693       2   27657   27675   27696       2
   27654   27648   27657       2   27654   27666   27678       2   27654   27669
   27687       2   27651   27648   27654       2   27651   27648   27657       2
   27651   27660   27678       2   27648   27651   27660       2   27648   27654
   27666       2   27648   27654   27669       2   27648   27657   27672       2
   27648   27657   27675       2   27843   27852   27846       2   27837   27846
   27852       2   27834   27825   27837       2   27834   27843   27852       2
   27828   27834   27843       2   27825   27834   27828       2   27825   27834
   27843       2   27825   27837   27846       2   27819   27828   27834       2
   27816   27801   27819       2   27816   27825   27834       2   27816   27825
   27837       2   27804   27816   27825       2   27801   27816   27804       2
   27801   27816   27825       2   27801   27819   27828       2   27795   27780
   27801       2   27783   27804   27816       2   27780   27765   27783       2
   27780   27801   27816       2   27780   27801   27819       2   27777   27795
   27780       2   27774   27762   27777       2   27768   27786   27774       2
   27765   27780   27795       2   27765   27780   27801       2   27765   27783
   27804       2   27762   27756   27765       2   27762   27774   27786       2
   27762   27777   27795       2   27759   27756   27762       2   27759   27756
   27765       2   27759   27768   27786       2   27756   27759   27768       2
   27756   27762   27774       2   27756   27762   27777       2   27756   27765
   27780       2   27756   27765   27783       2   27951   27960   27954       2
   27945   27954   27960       2   27942   27933   27945       2   27942   27951
   27960       2   27936   27942   27951       2   27933   27942   27936       2
   27933   27942   27951       2   27933   27945   27954       2   27927   27936
   27942       2   27924   27909   27927       2   27924   27933   27942       2
   27924   27933   27945       2   27912   27924   27933       2   27909   27924
   27912       2   27909   27924   27933       2   27909   27927   27936       2
   27903   27888   27909       2   27891   27912   27924       2   27888   27873
   27891       2   27888   27909   27924       2   27888   27909   27927       2
   27885   27903   27888       2   27882   27870   27885       2   27876   27894
   27882       2   27873   27888   27903       2   27873   27888   27909       2
   27873   27891   27912       2   27870   27864   27873       2   27870   27882
   27894       2   27870   27885   27903       2   27867   27864   27870       2
   27867   27864   27873       2   27867   27876   27894       2   27864   27867
   27876       2   27864   27870   27882       2   27864   27870   27885       2
   27864   27873   27888       2   27864   27873   27891       2   28059   28068
   28062       2   28053   28062   28068       2   28050   28041   28053       2
   28050   28059   28068       2   28044   28050   28059       2   28041   28050
   28044       2   28041   28050   28059       2   28041   28053   28062       2
   28035   28044   28050       2   28032   28017   28035       2   28032   28041
   28050       2   28032   28041   28053       2   28020   28032   28041       2
   28017   28032   28020       2   28017   28032   28041       2   28017   28035
   28044       2   28011   27996   28017       2   27999   28020   28032       2
   27996   27981   27999       2   27996   28017   28032       2   27996   28017
   28035       2   27993   28011   27996       2   27990   27978   27993       2
   27984   28002   27990       2   27981   27996   28011       2   27981   27996
   28017       2   27981   27999   28020       2   27978   27972   27981       2
   27978   27990   28002       2   27978   27993   28011       2   27975   27972
   27978       2   27975   27972   27981       2   27975   27984   28002       2
   27972   27975   27984       2   27972   27978   27990       2   27972   27978
   27993       2   27972   27981   27996       2   27972   27981   27999       2
   28167   28176   28170       2   28161   28170   28176       2   28158   28149
   28161       2   28158   28167   28176       2   28152   28158   28167       2
   28149   28158   28152       2   28149   28158   28167       2   28149   28161
   28170       2   28143   28152   28158       2   28140   28125   28143       2
   28140   28149   28158       2   28140   28149   28161       2   28128   28140
   28149       2   28125   28140   28128       2   28125   28140   28149       2
   28125   28143   28152       2   28119   28104   28125       2   28107   28128
   28140       2   28104   28089   28107       2   28104   28125   28140       2
   28104   28125   28143       2   28101   28119   28104       2   28098   28086
   28101       2   28092   28110   28098       2   28089   28104   28119       2
   28089   28104   28125       2   28089   28107   28128       2   28086   28080
   28089       2   28086   28098   28110       2   28086   28101   28119       2
   28083   28080   28086       2   28083   28080   28089       2   28083   28092
   28110       2   28080   28083   28092       2   28080   28086   28098       2
   28080   28086   28101       2   28080   28089   28104       2   28080   28089
   28107       2   28275   28284   28278       2   28269   28278   28284       2
   28266   28257   28269       2   28266   28275   28284       2   28260   28266
   28275       2   28257   28266   28260       2   28257   28266   28275       2
   28257   28269   28278       2   28251   28260   28266       2   28248   28233
   28251       2   28248   28257   28266       2   28248   28257   28269       2
   28236   28248   28257       2   28233   28248   28236       2   28233   28248
   28257       2   28233   28251   28260       2   28227   28212   28233       2
   28215   28236   28248       2   28212   28197   28215       2   28212   28233
   28248       2   28212   28233   28251       2   28209   28227   28212       2
   28206   28194   28209       2   28200   28218   28206       2   28197   28212
   28227       2   28197   28212   28233       2   28197   28215   28236       2
   28194   28188   28197       2   28194   28206   28218       2   28194   28209
   28227       2   28191   28188   28194       2   28191   28188   28197       2
   28191   28200   28218       2   28188   28191   28200       2   28188   28194
   28206       2   28188   28194   28209       2   28188   28197   28212       2
   28188   28197   28215       2   28383   28392   28386       2   28377   28386
   28392       2   28374   28365   28377       2   28374   28383   28392       2
   28368   28374   28383       2   28365   28374   28368       2   28365   28374
   28383       2   28365   28377   28386       2   28359   28368   28374       2
   28356   28341   28359       2   28356   28365   28374       2   28356   28365
   28377       2   28344   28356   28365       2   28341   28356   28344       2
   28341   28356   28365       2   28341   28359   28368       2   28335   28320
   28341       2   28323   28344   28356       2   28320   28305   28323       2
   28320   28341   28356       2   28320   28341   28359       2   28317   28335
   28320       2   28314   28302   28317       2   28308   28326   28314       2
   28305   28320   28335       2   28305   28320   28341       2   28305   28323
   28344       2   28302   28296   28305       2   28302   28314   28326       2
   28302   28317   28335       2   28299   28296   28302       2   28299   28296
   28305       2   28299   28308   28326       2   28296   28299   28308       2
   28296   28302   28314       2   28296   28302   28317       2   28296   28305
   28320       2   28296   28305   28323       2   28491   28500   28494       2
   28485   28494   28500       2   28482   28473   28485       2   28482   28491
   28500       2   28476   28482   28491       2   28473   28482   28476       2
   28473   28482   28491       2   28473   28485   28494       2   28467   28476
   28482       2   28464   28449   28467       2   28464   28473   28482       2
   28464   28473   28485       2   28452   28464   28473       2   28449   28464
   28452       2   28449   28464   28473       2   28449   28467   28476       2
   28443   28428   28449       2   28431   28452   28464       2   28428   28413
   28431       2   28428   28449   28464       2   28428   28449   28467       2
   28425   28443   28428       2   28422   28410   28425       2   28416   28434
   28422       2   28413   28428   28443       2   28413   28428   28449       2
   28413   28431   28452       2   28410   28404   28413       2   28410   28422
   28434       2   28410   28425   28443       2   28407   28404   28410       2
   28407   28404   28413       2   28407   28416   28434       2   28404   28407
   28416       2   28404   28410   28422       2   28404   28410   28425       2
   28404   28413   28428       2   28404   28413   28431       2   28599   28608
   28602       2   28593   28602   28608       2   28590   28581   28593       2
   28590   28599   28608       2   28584   28590   28599       2   28581   28590
   28584       2   28581   28590   28599       2   28581   28593   28602       2
   28575   28584   28590       2   28572   28557   28575       2   28572   28581
   28590       2   28572   28581   28593       2   28560   28572   28581       2
   28557   28572   28560       2   28557   28572   28581       2   28557   28575
   28584       2   28551   28536   28557       2   28539   28560   28572       2
   28536   28521   28539       2   28536   28557   28572       2   28536   28557
   28575       2   28533   28551   28536       2   28530   28518   28533       2
   28524   28542   28530       2   28521   28536   28551       2   28521   28536
   28557       2   28521   28539   28560       2   28518   28512   28521       2
   28518   28530   28542       2   28518   28533   28551       2   28515   28512
   28518       2   28515   28512   28521       2   28515   28524   28542       2
   28512   28515   28524       2   28512   28518   28530       2   28512   28518
   28533       2   28512   28521   28536       2   28512   28521   28539       2
   28707   28716   28710       2   28701   28710   28716       2   28698   28689
   28701       2   28698   28707   28716       2   28692   28698   28707       2
   28689   28698   28692       2   28689   28698   28707       2   28689   28701
   28710       2   28683   28692   28698       2   28680   28665   28683       2
   28680   28689   28698       2   28680   28689   28701       2   28668   28680
   28689       2   28665   28680   28668       2   28665   28680   28689       2
   28665   28683   28692       2   28659   28644   28665       2   28647   28668
   28680       2   28644   28629   28647       2   28644   28665   28680       2
   28644   28665   28683       2   28641   28659   28644       2   28638   28626
   28641       2   28632   28650   28638       2   28629   28644   28659       2
   28629   28644   28665       2   28629   28647   28668       2   28626   28620
   28629       2   28626   28638   28650       2   28626   28641   28659       2
   28623   28620   28626       2   28623   28620   28629       2   28623   28632
   28650       2   28620   28623   28632       2   28620   28626   28638       2
   28620   28626   28641       2   28620   28629   28644       2   28620   28629
   28647       2   28815   28824   28818       2   28809   28818   28824       2
   28806   28797   28809       2   28806   28815   28824       2   28800   28806
   28815       2   28797   28806   28800       2   28797   28806   28815       2
   28797   28809   28818       2   28791   28800   28806       2   28788   28773
   28791       2   28788   28797   28806       2   28788   28797   28809       2
   28776   28788   28797       2   28773   28788   28776       2   28773   28788
   28797       2   28773   28791   28800       2   28767   28752   28773       2
   28755   28776   28788       2   28752   28737   28755       2   28752   28773
   28788       2   28752   28773   28791       2   28749   28767   28752       2
   28746   28734   28749       2   28740   28758   28746       2   28737   28752
   28767       2   28737   28752   28773       2   28737   28755   28776       2
   28734   28728   28737       2   28734   28746   28758       2   28734   28749
   28767       2   28731   28728   28734       2   28731   28728   28737       2
   28731   28740   28758       2   28728   28731   28740       2   28728   28734
   28746       2   28728   28734   28749       2   28728   28737   28752       2
   28728   28737   28755       2   28923   28932   28926       2   28917   28926
   28932       2   28914   28905   28917       2   28914   28923   28932       2
   28908   28914   28923       2   28905   28914   28908       2   28905   28914
   28923       2   28905   28917   28926       2   28899   28908   28914       2
   28896   28881   28899       2   28896   28905   28914       2   28896   28905
   28917       2   28884   28896   28905       2   28881   28896   28884       2
   28881   28896   28905       2   28881   28899   28908       2   28875   28860
   28881       2   28863   28884   28896       2   28860   28845   28863       2
   28860   28881   28896       2   28860   28881   28899       2   28857   28875
   28860       2   28854   28842   28857       2   28848   28866   28854       2
   28845   28860   28875       2   28845   28860   28881       2   28845   28863
   28884       2   28842   28836   28845       2   28842   28854   28866       2
   28842   28857   28875       2   28839   28836   28842       2   28839   28836
   28845       2   28839   28848   28866       2   28836   28839   28848       2
   28836   28842   28854       2   28836   28842   28857       2   28836   28845
   28860       2   28836   28845   28863       2   29031   29040   29034       2
   29025   29034   29040       2   29022   29013   29025       2   29022   29031
   29040       2   29016   29022   29031       2   29013   29022   29016       2
   29013   29022   29031       2   29013   29025   29034       2   29007   29016
   29022       2   29004   28989   29007       2   29004   29013   29022       2
   29004   29013   29025       2   28992   29004   29013       2   28989   29004
   28992       2   28989   29004   29013       2   28989   29007   29016       2
   28983   28968   28989       2   28971   28992   29004       2   28968   28953
   28971       2   28968   28989   29004       2   28968   28989   29007       2
   28965   28983   28968       2   28962   28950   28965       2   28956   28974
   28962       2   28953   28968   28983       2   28953   28968   28989       2
   28953   28971   28992       2   28950   28944   28953       2   28950   28962
   28974       2   28950   28965   28983       2   28947   28944   28950       2
   28947   28944   28953       2   28947   28956   28974       2   28944   28947
   28956       2   28944   28950   28962       2   28944   28950   28965       2
   28944   28953   28968       2   28944   28953   28971       2   29139   29148
   29142       2   29133   29142   29148       2   29130   29121   29133       2
   29130   29139   29148       2   29124   29130   29139       2   29121   29130
   29124       2   29121   29130   29139       2   29121   29133   29142       2
   29115   29124   29130       2   29112   29097   29115       2   29112   29121
   29130       2   29112   29121   29133       2   29100   29112   29121       2
   29097   29112   29100       2   29097   29112   29121       2   29097   29115
   29124       2   29091   29076   29097       2   29079   29100   29112       2
   29076   29061   29079       2   29076   29097   29112       2   29076   29097
   29115       2   29073   29091   29076       2   29070   29058   29073       2
   29064   29082   29070       2   29061   29076   29091       2   29061   29076
   29097       2   29061   29079   29100       2   29058   29052   29061       2
   29058   29070   29082       2   29058   29073   29091       2   29055   29052
   29058       2   29055   29052   29061       2   29055   29064   29082       2
   29052   29055   29064       2   29052   29058   29070       2   29052   29058
   29073       2   29052   29061   29076       2   29052   29061   29079       2
   29247   29256   29250       2   29241   29250   29256       2   29238   29229
   29241       2   29238   29247   29256       2   29232   29238   29247       2
   29229   29238   29232       2   29229   29238   29247       2   29229   29241
   29250       2   29223   29232   29238       2   29220   29205   29223       2
   29220   29229   29238       2   29220   29229   29241       2   29208   29220
   29229       2   29205   29220   29208       2   29205   29220   29229       2
   29205   29223   29232       2   29199   29184   29205       2   29187   29208
   29220       2   29184   29169   29187       2   29184   29205   29220       2
   29184   29205   29223       2   29181   29199   29184       2   29178   29166
   29181       2   29172   29190   29178       2   29169   29184   29199       2
   29169   29184   29205       2   29169   29187   29208       2   29166   29160
   29169       2   29166   29178   29190       2   29166   29181   29199       2
   29163   29160   29166       2   29163   29160   29169       2   29163   29172
   29190       2   29160   29163   29172       2   29160   29166   29178       2
   29160   29166   29181       2   29160   29169   29184       2   29160   29169
   29187       2   29355   29364   29358       2   29349   29358   29364       2
   29346   29337   29349       2   29346   29355   29364       2   29340   29346
   29355       2   29337   29346   29340       2   29337   29346   29355       2
   29337   29349   29358       2   29331   29340   29346       2   29328   29313
   29331       2   29328   29337   29346       2   29328   29337   29349       2
   29316   29328   29337       2   29313   29328   29316       2   29313   29328
   29337       2   29313   29331   29340       2   29307   29292   29313       2
   29295   29316   29328       2   29292   29277   29295       2   29292   29313
   29328       2   29292   29313   29331       2   29289   29307   29292       2
   29286   29274   29289       2   29280   29298   29286       2   29277   29292
   29307       2   29277   29292   29313       2   29277   29295   29316       2
   29274   29268   29277       2   29274   29286   29298       2   29274   29289
   29307       2   29271   29268   29274       2   29271   29268   29277       2
   29271   29280   29298       2   29268   29271   29280       2   29268   29274
   29286       2   29268   29274   29289       2   29268   29277   29292       2
   29268   29277   29295       2   29463   29472   29466       2   29457   29466
   29472       2   29454   29445   29457       2   29454   29463   29472       2
   29448   29454   29463       2   29445   29454   29448       2   29445   29454
   29463       2   29445   29457   29466       2   29439   29448   29454       2
   29436   29421   29439       2   29436   29445   29454       2   29436   29445
   29457       2   29424   29436   29445       2   29421   29436   29424       2
   29421   29436   29445       2   29421   29439   29448       2   29415   29400
   29421       2   29403   29424   29436       2   29400   29385   29403       2
   29400   29421   29436       2   29400   29421   29439       2   29397   29415
   29400       2   29394   29382   29397       2   29388   29406   29394       2
   29385   29400   29415       2   29385   29400   29421       2   29385   29403
   29424       2   29382   29376   29385       2   29382   29394   29406       2
   29382   29397   29415       2   29379   29376   29382       2   29379   29376
   29385       2   29379   29388   29406       2   29376   29379   29388       2
   29376   29382   29394       2   29376   29382   29397       2   29376   29385
   29400       2   29376   29385   29403       2   29571   29580   29574       2
   29565   29574   29580       2   29562   29553   29565       2   29562   29571
   29580       2   29556   29562   29571       2   29553   29562   29556       2
   29553   29562   29571       2   29553   29565   29574       2   29547   29556
   29562       2   29544   29529   29547       2   29544   29553   29562       2
   29544   29553   29565       2   29532   29544   29553       2   29529   29544
   29532       2   29529   29544   29553       2   29529   29547   29556       2
   29523   29508   29529       2   29511   29532   29544       2   29508   29493
   29511       2   29508   29529   29544       2   29508   29529   29547       2
   29505   29523   29508       2   29502   29490   29505       2   29496   29514
   29502       2   29493   29508   29523       2   29493   29508   29529       2
   29493   29511   29532       2   29490   29484   29493       2   29490   29502
   29514       2   29490   29505   29523       2   29487   29484   29490       2
   29487   29484   29493       2   29487   29496   29514       2   29484   29487
   29496       2   29484   29490   29502       2   29484   29490   29505       2
   29484   29493   29508       2   29484   29493   29511       2   29679   29688
   29682       2   29673   29682   29688       2   29670   29661   29673       2
   29670   29679   29688       2   29664   29670   29679       2   29661   29670
   29664       2   29661   29670   29679       2   29661   29673   29682       2
   29655   29664   29670       2   29652   29637   29655       2   29652   29661
   29670       2   29652   29661   29673       2   29640   29652   29661       2
   29637   29652   29640       2   29637   29652   29661       2   29637   29655
   29664       2   29631   29616   29637       2   29619   29640   29652       2
   29616   29601   29619       2   29616   29637   29652       2   29616   29637
   29655       2   29613   29631   29616       2   29610   29598   29613       2
   29604   29622   29610       2   29601   29616   29631       2   29601   29616
   29637       2   29601   29619   29640       2   29598   29592   29601       2
   29598   29610   29622       2   29598   29613   29631       2   29595   29592
   29598       2   29595   29592   29601       2   29595   29604   29622       2
   29592   29595   29604       2   29592   29598   29610       2   29592   29598
   29613       2   29592   29601   29616       2   29592   29601   29619       2
   29787   29796   29790       2   29781   29790   29796       2   29778   29769
   29781       2   29778   29787   29796       2   29772   29778   29787       2
   29769   29778   29772       2   29769   29778   29787       2   29769   29781
   29790       2   29763   29772   29778       2   29760   29745   29763       2
   29760   29769   29778       2   29760   29769   29781       2   29748   29760
   29769       2   29745   29760   29748       2   29745   29760   29769       2
   29745   29763   29772       2   29739   29724   29745       2   29727   29748
   29760       2   29724   29709   29727       2   29724   29745   29760       2
   29724   29745   29763       2   29721   29739   29724       2   29718   29706
   29721       2   29712   29730   29718       2   29709   29724   29739       2
   29709   29724   29745       2   29709   29727   29748       2   29706   29700
   29709       2   29706   29718   29730       2   29706   29721   29739       2
   29703   29700   29706       2   29703   29700   29709       2   29703   29712
   29730       2   29700   29703   29712       2   29700   29706   29718       2
   29700   29706   29721       2   29700   29709   29724       2   29700   29709
   29727       2   29895   29904   29898       2   29889   29898   29904       2
   29886   29877   29889       2   29886   29895   29904       2   29880   29886
   29895       2   29877   29886   29880       2   29877   29886   29895       2
   29877   29889   29898       2   29871   29880   29886       2   29868   29853
   29871       2   29868   29877   29886       2   29868   29877   29889       2
   29856   29868   29877       2   29853   29868   29856       2   29853   29868
   29877       2   29853   29871   29880       2   29847   29832   29853       2
   29835   29856   29868       2   29832   29817   29835       2   29832   29853
   29868       2   29832   29853   29871       2   29829   29847   29832       2
   29826   29814   29829       2   29820   29838   29826       2   29817   29832
   29847       2   29817   29832   29853       2   29817   29835   29856       2
   29814   29808   29817       2   29814   29826   29838       2   29814   29829
   29847       2   29811   29808   29814       2   29811   29808   29817       2
   29811   29820   29838       2   29808   29811   29820       2   29808   29814
   29826       2   29808   29814   29829       2   29808   29817   29832       2
   29808   29817   29835       2   30003   30012   30006       2   29997   30006
   30012       2   29994   29985   29997       2   29994   30003   30012       2
   29988   29994   30003       2   29985   29994   29988       2   29985   29994
   30003       2   29985   29997   30006       2   29979   29988   29994       2
   29976   29961   29979       2   29976   29985   29994       2   29976   29985
   29997       2   29964   29976   29985       2   29961   29976   29964       2
   29961   29976   29985       2   29961   29979   29988       2   29955   29940
   29961       2   29943   29964   29976       2   29940   29925   29943       2
   29940   29961   29976       2   29940   29961   29979       2   29937   29955
   29940       2   29934   29922   29937       2   29928   29946   29934       2
   29925   29940   29955       2   29925   29940   29961       2   29925   29943
   29964       2   29922   29916   29925       2   29922   29934   29946       2
   29922   29937   29955       2   29919   29916   29922       2   29919   29916
   29925       2   29919   29928   29946       2   29916   29919   29928       2
   29916   29922   29934       2   29916   29922   29937       2   29916   29925
   29940       2   29916   29925   29943       2   30111   30120   30114       2
   30105   30114   30120       2   30102   30093   30105       2   30102   30111
   30120       2   30096   30102   30111       2   30093   30102   30096       2
   30093   30102   30111       2   30093   30105   30114       2   30087   30096
   30102       2   30084   30069   30087       2   30084   30093   30102       2
   30084   30093   30105       2   30072   30084   30093       2   30069   30084
   30072       2   30069   30084   30093       2   30069   30087   30096       2
   30063   30048   30069       2   30051   30072   30084       2   30048   30033
   30051       2   30048   30069   30084       2   30048   30069   30087       2
   30045   30063   30048       2   30042   30030   30045       2   30036   30054
   30042       2   30033   30048   30063       2   30033   30048   30069       2
   30033   30051   30072       2   30030   30024   30033       2   30030   30042
   30054       2   30030   30045   30063       2   30027   30024   30030       2
   30027   30024   30033       2   30027   30036   30054       2   30024   30027
   30036       2   30024   30030   30042       2   30024   30030   30045       2
   30024   30033   30048       2   30024   30033   30051       2   30219   30228
   30222       2   30213   30222   30228       2   30210   30201   30213       2
   30210   30219   30228       2   30204   30210   30219       2   30201   30210
   30204       2   30201   30210   30219       2   30201   30213   30222       2
   30195   30204   30210       2   30192   30177   30195       2   30192   30201
   30210       2   30192   30201   30213       2   30180   30192   30201       2
   30177   30192   30180       2   30177   30192   30201       2   30177   30195
   30204       2   30171   30156   30177       2   30159   30180   30192       2
   30156   30141   30159       2   30156   30177   30192       2   30156   30177
   30195       2   30153   30171   30156       2   30150   30138   30153       2
   30144   30162   30150       2   30141   30156   30171       2   30141   30156
   30177       2   30141   30159   30180       2   30138   30132   30141       2
   30138   30150   30162       2   30138   30153   30171       2   30135   30132
   30138       2   30135   30132   30141       2   30135   30144   30162       2
   30132   30135   30144       2   30132   30138   30150       2   30132   30138
   30153       2   30132   30141   30156       2   30132   30141   30159       2
   30327   30336   30330       2   30321   30330   30336       2   30318   30309
   30321       2   30318   30327   30336       2   30312   30318   30327       2
   30309   30318   30312       2   30309   30318   30327       2   30309   30321
   30330       2   30303   30312   30318       2   30300   30285   30303       2
   30300   30309   30318       2   30300   30309   30321       2   30288   30300
   30309       2   30285   30300   30288       2   30285   30300   30309       2
   30285   30303   30312       2   30279   30264   30285       2   30267   30288
   30300       2   30264   30249   30267       2   30264   30285   30300       2
   30264   30285   30303       2   30261   30279   30264       2   30258   30246
   30261       2   30252   30270   30258       2   30249   30264   30279       2
   30249   30264   30285       2   30249   30267   30288       2   30246   30240
   30249       2   30246   30258   30270       2   30246   30261   30279       2
   30243   30240   30246       2   30243   30240   30249       2   30243   30252
   30270       2   30240   30243   30252       2   30240   30246   30258       2
   30240   30246   30261       2   30240   30249   30264       2   30240   30249
   30267       2   30435   30444   30438       2   30429   30438   30444       2
   30426   30417   30429       2   30426   30435   30444       2   30420   30426
   30435       2   30417   30426   30420       2   30417   30426   30435       2
   30417   30429   30438       2   30411   30420   30426       2   30408   30393
   30411       2   30408   30417   30426       2   30408   30417   30429       2
   30396   30408   30417       2   30393   30408   30396       2   30393   30408
   30417       2   30393   30411   30420       2   30387   30372   30393       2
   30375   30396   30408       2   30372   30357   30375       2   30372   30393
   30408       2   30372   30393   30411       2   30369   30387   30372       2
   30366   30354   30369       2   30360   30378   30366       2   30357   30372
   30387       2   30357   30372   30393       2   30357   30375   30396       2
   30354   30348   30357       2   30354   30366   30378       2   30354   30369
   30387       2   30351   30348   30354       2   30351   30348   30357       2
   30351   30360   30378       2   30348   30351   30360       2   30348   30354
   30366       2   30348   30354   30369       2   30348   30357   30372       2
   30348   30357   30375       2   30543   30552   30546       2   30537   30546
   30552       2   30534   30525   30537       2   30534   30543   30552       2
   30528   30534   30543       2   30525   30534   30528       2   30525   30534
   30543       2   30525   30537   30546       2   30519   30528   30534       2
   30516   30501   30519       2   30516   30525   30534       2   30516   30525
   30537       2   30504   30516   30525       2   30501   30516   30504       2
   30501   30516   30525       2   30501   30519   30528       2   30495   30480
   30501       2   30483   30504   30516       2   30480   30465   30483       2
   30480   30501   30516       2   30480   30501   30519       2   30477   30495
   30480       2   30474   30462   30477       2   30468   30486   30474       2
   30465   30480   30495       2   30465   30480   30501       2   30465   30483
   30504       2   30462   30456   30465       2   30462   30474   30486       2
   30462   30477   30495       2   30459   30456   30462       2   30459   30456
   30465       2   30459   30468   30486       2   30456   30459   30468       2
   30456   30462   30474       2   30456   30462   30477       2   30456   30465
   30480       2   30456   30465   30483       2   30651   30660   30654       2
   30645   30654   30660       2   30642   30633   30645       2   30642   30651
   30660       2   30636   30642   30651       2   30633   30642   30636       2
   30633   30642   30651       2   30633   30645   30654       2   30627   30636
   30642       2   30624   30609   30627       2   30624   30633   30642       2
   30624   30633   30645       2   30612   30624   30633       2   30609   30624
   30612       2   30609   30624   30633       2   30609   30627   30636       2
   30603   30588   30609       2   30591   30612   30624       2   30588   30573
   30591       2   30588   30609   30624       2   30588   30609   30627       2
   30585   30603   30588       2   30582   30570   30585       2   30576   30594
   30582       2   30573   30588   30603       2   30573   30588   30609       2
   30573   30591   30612       2   30570   30564   30573       2   30570   30582
   30594       2   30570   30585   30603       2   30567   30564   30570       2
   30567   30564   30573       2   30567   30576   30594       2   30564   30567
   30576       2   30564   30570   30582       2   30564   30570   30585       2
   30564   30573   30588       2   30564   30573   30591       2   30759   30768
   30762       2   30753   30762   30768       2   30750   30741   30753       2
   30750   30759   30768       2   30744   30750   30759       2   30741   30750
   30744       2   30741   30750   30759       2   30741   30753   30762       2
   30735   30744   30750       2   30732   30717   30735       2   30732   30741
   30750       2   30732   30741   30753       2   30720   30732   30741       2
   30717   30732   30720       2   30717   30732   30741       2   30717   30735
   30744       2   30711   30696   30717       2   30699   30720   30732       2
   30696   30681   30699       2   30696   30717   30732       2   30696   30717
   30735       2   30693   30711   30696       2   30690   30678   30693       2
   30684   30702   30690       2   30681   30696   30711       2   30681   30696
   30717       2   30681   30699   30720       2   30678   30672   30681       2
   30678   30690   30702       2   30678   30693   30711       2   30675   30672
   30678       2   30675   30672   30681       2   30675   30684   30702       2
   30672   30675   30684       2   30672   30678   30690       2   30672   30678
   30693       2   30672   30681   30696       2   30672   30681   30699       2
   30867   30876   30870       2   30861   30870   30876       2   30858   30849
   30861       2   30858   30867   30876       2   30852   30858   30867       2
   30849   30858   30852       2   30849   30858   30867       2   30849   30861
   30870       2   30843   30852   30858       2   30840   30825   30843       2
   30840   30849   30858       2   30840   30849   30861       2   30828   30840
   30849       2   30825   30840   30828       2   30825   30840   30849       2
   30825   30843   30852       2   30819   30804   30825       2   30807   30828
   30840       2   30804   30789   30807       2   30804   30825   30840       2
   30804   30825   30843       2   30801   30819   30804       2   30798   30786
   30801       2   30792   30810   30798       2   30789   30804   30819       2
   30789   30804   30825       2   30789   30807   30828       2   30786   30780
   30789       2   30786   30798   30810       2   30786   30801   30819       2
   30783   30780   30786       2   30783   30780   30789       2   30783   30792
   30810       2   30780   30783   30792       2   30780   30786   30798       2
   30780   30786   30801       2   30780   30789   30804       2   30780   30789
   30807       2   30975   30984   30978       2   30969   30978   30984       2
   30966   30957   30969       2   30966   30975   30984       2   30960   30966
   30975       2   30957   30966   30960       2   30957   30966   30975       2
   30957   30969   30978       2   30951   30960   30966       2   30948   30933
   30951       2   30948   30957   30966       2   30948   30957   30969       2
   30936   30948   30957       2   30933   30948   30936       2   30933   30948
   30957       2   30933   30951   30960       2   30927   30912   30933       2
   30915   30936   30948       2   30912   30897   30915       2   30912   30933
   30948       2   30912   30933   30951       2   30909   30927   30912       2
   30906   30894   30909       2   30900   30918   30906       2   30897   30912
   30927       2   30897   30912   30933       2   30897   30915   30936       2
   30894   30888   30897       2   30894   30906   30918       2   30894   30909
   30927       2   30891   30888   30894       2   30891   30888   30897       2
   30891   30900   30918       2   30888   30891   30900       2   30888   30894
   30906       2   30888   30894   30909       2   30888   30897   30912       2
   30888   30897   30915       2   31083   31092   31086       2   31077   31086
   31092       2   31074   31065   31077       2   31074   31083   31092       2
   31068   31074   31083       2   31065   31074   31068       2   31065   31074
   31083       2   31065   31077   31086       2   31059   31068   31074       2
   31056   31041   31059       2   31056   31065   31074       2   31056   31065
   31077       2   31044   31056   31065       2   31041   31056   31044       2
   31041   31056   31065       2   31041   31059   31068       2   31035   31020
   31041       2   31023   31044   31056       2   31020   31005   31023       2
   31020   31041   31056       2   31020   31041   31059       2   31017   31035
   31020       2   31014   31002   31017       2   31008   31026   31014       2
   31005   31020   31035       2   31005   31020   31041       2   31005   31023
   31044       2   31002   30996   31005       2   31002   31014   31026       2
   31002   31017   31035       2   30999   30996   31002       2   30999   30996
   31005       2   30999   31008   31026       2   30996   30999   31008       2
   30996   31002   31014       2   30996   31002   31017       2   30996   31005
   31020       2   30996   31005   31023       2   31191   31200   31194       2
   31185   31194   31200       2   31182   31173   31185       2   31182   31191
   31200       2   31176   31182   31191       2   31173   31182   31176       2
   31173   31182   31191       2   31173   31185   31194       2   31167   31176
   31182       2   31164   31149   31167       2   31164   31173   31182       2
   31164   31173   31185       2   31152   31164   31173       2   31149   31164
   31152       2   31149   31164   31173       2   31149   31167   31176       2
   31143   31128   31149       2   31131   31152   31164       2   31128   31113
   31131       2   31128   31149   31164       2   31128   31149   31167       2
   31125   31143   31128       2   31122   31110   31125       2   31116   31134
   31122       2   31113   31128   31143       2   31113   31128   31149       2
   31113   31131   31152       2   31110   31104   31113       2   31110   31122
   31134       2   31110   31125   31143       2   31107   31104   31110       2
   31107   31104   31113       2   31107   31116   31134       2   31104   31107
   31116       2   31104   31110   31122       2   31104   31110   31125       2
   31104   31113   31128       2   31104   31113   31131       2   31299   31308
   31302       2   31293   31302   31308       2   31290   31281   31293       2
   31290   31299   31308       2   31284   31290   31299       2   31281   31290
   31284       2   31281   31290   31299       2   31281   31293   31302       2
   31275   31284   31290       2   31272   31257   31275       2   31272   31281
   31290       2   31272   31281   31293       2   31260   31272   31281       2
   31257   31272   31260       2   31257   31272   31281       2   31257   31275
   31284       2   31251   31236   31257       2   31239   31260   31272       2
   31236   31221   31239       2   31236   31257   31272       2   31236   31257
   31275       2   31233   31251   31236       2   31230   31218   31233       2
   31224   31242   31230       2   31221   31236   31251       2   31221   31236
   31257       2   31221   31239   31260       2   31218   31212   31221       2
   31218   31230   31242       2   31218   31233   31251       2   31215   31212
   31218       2   31215   31212   31221       2   31215   31224   31242       2
   31212   31215   31224       2   31212   31218   31230       2   31212   31218
   31233       2   31212   31221   31236       2   31212   31221   31239       2
   31407   31416   31410       2   31401   31410   31416       2   31398   31389
   31401       2   31398   31407   31416       2   31392   31398   31407       2
   31389   31398   31392       2   31389   31398   31407       2   31389   31401
   31410       2   31383   31392   31398       2   31380   31365   31383       2
   31380   31389   31398       2   31380   31389   31401       2   31368   31380
   31389       2   31365   31380   31368       2   31365   31380   31389       2
   31365   31383   31392       2   31359   31344   31365       2   31347   31368
   31380       2   31344   31329   31347       2   31344   31365   31380       2
   31344   31365   31383       2   31341   31359   31344       2   31338   31326
   31341       2   31332   31350   31338       2   31329   31344   31359       2
   31329   31344   31365       2   31329   31347   31368       2   31326   31320
   31329       2   31326   31338   31350       2   31326   31341   31359       2
   31323   31320   31326       2   31323   31320   31329       2   31323   31332
   31350       2   31320   31323   31332       2   31320   31326   31338       2
   31320   31326   31341       2   31320   31329   31344       2   31320   31329
   31347       2   31515   31524   31518       2   31509   31518   31524       2
   31506   31497   31509       2   31506   31515   31524       2   31500   31506
   31515       2   31497   31506   31500       2   31497   31506   31515       2
   31497   31509   31518       2   31491   31500   31506       2   31488   31473
   31491       2   31488   31497   31506       2   31488   31497   31509       2
   31476   31488   31497       2   31473   31488   31476       2   31473   31488
   31497       2   31473   31491   31500       2   31467   31452   31473       2
   31455   31476   31488       2   31452   31437   31455       2   31452   31473
   31488       2   31452   31473   31491       2   31449   31467   31452       2
   31446   31434   31449       2   31440   31458   31446       2   31437   31452
   31467       2   31437   31452   31473       2   31437   31455   31476       2
   31434   31428   31437       2   31434   31446   31458       2   31434   31449
   31467       2   31431   31428   31434       2   31431   31428   31437       2
   31431   31440   31458       2   31428   31431   31440       2   31428   31434
   31446       2   31428   31434   31449       2   31428   31437   31452       2
   31428   31437   31455       2   31623   31632   31626       2   31617   31626
   31632       2   31614   31605   31617       2   31614   31623   31632       2
   31608   31614   31623       2   31605   31614   31608       2   31605   31614
   31623       2   31605   31617   31626       2   31599   31608   31614       2
   31596   31581   31599       2   31596   31605   31614       2   31596   31605
   31617       2   31584   31596   31605       2   31581   31596   31584       2
   31581   31596   31605       2   31581   31599   31608       2   31575   31560
   31581       2   31563   31584   31596       2   31560   31545   31563       2
   31560   31581   31596       2   31560   31581   31599       2   31557   31575
   31560       2   31554   31542   31557       2   31548   31566   31554       2
   31545   31560   31575       2   31545   31560   31581       2   31545   31563
   31584       2   31542   31536   31545       2   31542   31554   31566       2
   31542   31557   31575       2   31539   31536   31542       2   31539   31536
   31545       2   31539   31548   31566       2   31536   31539   31548       2
   31536   31542   31554       2   31536   31542   31557       2   31536   31545
   31560       2   31536   31545   31563       2   31731   31740   31734       2
   31725   31734   31740       2   31722   31713   31725       2   31722   31731
   31740       2   31716   31722   31731       2   31713   31722   31716       2
   31713   31722   31731       2   31713   31725   31734       2   31707   31716
   31722       2   31704   31689   31707       2   31704   31713   31722       2
   31704   31713   31725       2   31692   31704   31713       2   31689   31704
   31692       2   31689   31704   31713       2   31689   31707   31716       2
   31683   31668   31689       2   31671   31692   31704       2   31668   31653
   31671       2   31668   31689   31704       2   31668   31689   31707       2
   31665   31683   31668       2   31662   31650   31665       2   31656   31674
   31662       2   31653   31668   31683       2   31653   31668   31689       2
   31653   31671   31692       2   31650   31644   31653       2   31650   31662
   31674       2   31650   31665   31683       2   31647   31644   31650       2
   31647   31644   31653       2   31647   31656   31674       2   31644   31647
   31656       2   31644   31650   31662       2   31644   31650   31665       2
   31644   31653   31668       2   31644   31653   31671       2   31839   31848
   31842       2   31833   31842   31848       2   31830   31821   31833       2
   31830   31839   31848       2   31824   31830   31839       2   31821   31830
   31824       2   31821   31830   31839       2   31821   31833   31842       2
   31815   31824   31830       2   31812   31797   31815       2   31812   31821
   31830       2   31812   31821   31833       2   31800   31812   31821       2
   31797   31812   31800       2   31797   31812   31821       2   31797   31815
   31824       2   31791   31776   31797       2   31779   31800   31812       2
   31776   31761   31779       2   31776   31797   31812       2   31776   31797
   31815       2   31773   31791   31776       2   31770   31758   31773       2
   31764   31782   31770       2   31761   31776   31791       2   31761   31776
   31797       2   31761   31779   31800       2   31758   31752   31761       2
   31758   31770   31782       2   31758   31773   31791       2   31755   31752
   31758       2   31755   31752   31761       2   31755   31764   31782       2
   31752   31755   31764       2   31752   31758   31770       2   31752   31758
   31773       2   31752   31761   31776       2   31752   31761   31779       2
   31947   31956   31950       2   31941   31950   31956       2   31938   31929
   31941       2   31938   31947   31956       2   31932   31938   31947       2
   31929   31938   31932       2   31929   31938   31947       2   31929   31941
   31950       2   31923   31932   31938       2   31920   31905   31923       2
   31920   31929   31938       2   31920   31929   31941       2   31908   31920
   31929       2   31905   31920   31908       2   31905   31920   31929       2
   31905   31923   31932       2   31899   31884   31905       2   31887   31908
   31920       2   31884   31869   31887       2   31884   31905   31920       2
   31884   31905   31923       2   31881   31899   31884       2   31878   31866
   31881       2   31872   31890   31878       2   31869   31884   31899       2
   31869   31884   31905       2   31869   31887   31908       2   31866   31860
   31869       2   31866   31878   31890       2   31866   31881   31899       2
   31863   31860   31866       2   31863   31860   31869       2   31863   31872
   31890       2   31860   31863   31872       2   31860   31866   31878       2
   31860   31866   31881       2   31860   31869   31884       2   31860   31869
   31887       2   32055   32064   32058       2   32049   32058   32064       2
   32046   32037   32049       2   32046   32055   32064       2   32040   32046
   32055       2   32037   32046   32040       2   32037   32046   32055       2
   32037   32049   32058       2   32031   32040   32046       2   32028   32013
   32031       2   32028   32037   32046       2   32028   32037   32049       2
   32016   32028   32037       2   32013   32028   32016       2   32013   32028
   32037       2   32013   32031   32040       2   32007   31992   32013       2
   31995   32016   32028       2   31992   31977   31995       2   31992   32013
   32028       2   31992   32013   32031       2   31989   32007   31992       2
   31986   31974   31989       2   31980   31998   31986       2   31977   31992
   32007       2   31977   31992   32013       2   31977   31995   32016       2
   31974   31968   31977       2   31974   31986   31998       2   31974   31989
   32007       2   31971   31968   31974       2   31971   31968   31977       2
   31971   31980   31998       2   31968   31971   31980       2   31968   31974
   31986       2   31968   31974   31989       2   31968   31977   31992       2
   31968   31977   31995       2   32163   32172   32166       2   32157   32166
   32172       2   32154   32145   32157       2   32154   32163   32172       2
   32148   32154   32163       2   32145   32154   32148       2   32145   32154
   32163       2   32145   32157   32166       2   32139   32148   32154       2
   32136   32121   32139       2   32136   32145   32154       2   32136   32145
   32157       2   32124   32136   32145       2   32121   32136   32124       2
   32121   32136   32145       2   32121   32139   32148       2   32115   32100
   32121       2   32103   32124   32136       2   32100   32085   32103       2
   32100   32121   32136       2   32100   32121   32139       2   32097   32115
   32100       2   32094   32082   32097       2   32088   32106   32094       2
   32085   32100   32115       2   32085   32100   32121       2   32085   32103
   32124       2   32082   32076   32085       2   32082   32094   32106       2
   32082   32097   32115       2   32079   32076   32082       2   32079   32076
   32085       2   32079   32088   32106       2   32076   32079   32088       2
   32076   32082   32094       2   32076   32082   32097       2   32076   32085
   32100       2   32076   32085   32103       2   32271   32280   32274       2
   32265   32274   32280       2   32262   32253   32265       2   32262   32271
   32280       2   32256   32262   32271       2   32253   32262   32256       2
   32253   32262   32271       2   32253   32265   32274       2   32247   32256
   32262       2   32244   32229   32247       2   32244   32253   32262       2
   32244   32253   32265       2   32232   32244   32253       2   32229   32244
   32232       2   32229   32244   32253       2   32229   32247   32256       2
   32223   32208   32229       2   32211   32232   32244       2   32208   32193
   32211       2   32208   32229   32244       2   32208   32229   32247       2
   32205   32223   32208       2   32202   32190   32205       2   32196   32214
   32202       2   32193   32208   32223       2   32193   32208   32229       2
   32193   32211   32232       2   32190   32184   32193       2   32190   32202
   32214       2   32190   32205   32223       2   32187   32184   32190       2
   32187   32184   32193       2   32187   32196   32214       2   32184   32187
   32196       2   32184   32190   32202       2   32184   32190   32205       2
   32184   32193   32208       2   32184   32193   32211       2   32379   32388
   32382       2   32373   32382   32388       2   32370   32361   32373       2
   32370   32379   32388       2   32364   32370   32379       2   32361   32370
   32364       2   32361   32370   32379       2   32361   32373   32382       2
   32355   32364   32370       2   32352   32337   32355       2   32352   32361
   32370       2   32352   32361   32373       2   32340   32352   32361       2
   32337   32352   32340       2   32337   32352   32361       2   32337   32355
   32364       2   32331   32316   32337       2   32319   32340   32352       2
   32316   32301   32319       2   32316   32337   32352       2   32316   32337
   32355       2   32313   32331   32316       2   32310   32298   32313       2
   32304   32322   32310       2   32301   32316   32331       2   32301   32316
   32337       2   32301   32319   32340       2   32298   32292   32301       2
   32298   32310   32322       2   32298   32313   32331       2   32295   32292
   32298       2   32295   32292   32301       2   32295   32304   32322       2
   32292   32295   32304       2   32292   32298   32310       2   32292   32298
   32313       2   32292   32301   32316       2   32292   32301   32319       2
   32487   32496   32490       2   32481   32490   32496       2   32478   32469
   32481       2   32478   32487   32496       2   32472   32478   32487       2
   32469   32478   32472       2   32469   32478   32487       2   32469   32481
   32490       2   32463   32472   32478       2   32460   32445   32463       2
   32460   32469   32478       2   32460   32469   32481       2   32448   32460
   32469       2   32445   32460   32448       2   32445   32460   32469       2
   32445   32463   32472       2   32439   32424   32445       2   32427   32448
   32460       2   32424   32409   32427       2   32424   32445   32460       2
   32424   32445   32463       2   32421   32439   32424       2   32418   32406
   32421       2   32412   32430   32418       2   32409   32424   32439       2
   32409   32424   32445       2   32409   32427   32448       2   32406   32400
   32409       2   32406   32418   32430       2   32406   32421   32439       2
   32403   32400   32406       2   32403   32400   32409       2   32403   32412
   32430       2   32400   32403   32412       2   32400   32406   32418       2
   32400   32406   32421       2   32400   32409   32424       2   32400   32409
   32427       2   32595   32604   32598       2   32589   32598   32604       2
   32586   32577   32589       2   32586   32595   32604       2   32580   32586
   32595       2   32577   32586   32580       2   32577   32586   32595       2
   32577   32589   32598       2   32571   32580   32586       2   32568   32553
   32571       2   32568   32577   32586       2   32568   32577   32589       2
   32556   32568   32577       2   32553   32568   32556       2   32553   32568
   32577       2   32553   32571   32580       2   32547   32532   32553       2
   32535   32556   32568       2   32532   32517   32535       2   32532   32553
   32568       2   32532   32553   32571       2   32529   32547   32532       2
   32526   32514   32529       2   32520   32538   32526       2   32517   32532
   32547       2   32517   32532   32553       2   32517   32535   32556       2
   32514   32508   32517       2   32514   32526   32538       2   32514   32529
   32547       2   32511   32508   32514       2   32511   32508   32517       2
   32511   32520   32538       2   32508   32511   32520       2   32508   32514
   32526       2   32508   32514   32529       2   32508   32517   32532       2
   32508   32517   32535       2   32703   32712   32706       2   32697   32706
   32712       2   32694   32685   32697       2   32694   32703   32712       2
   32688   32694   32703       2   32685   32694   32688       2   32685   32694
   32703       2   32685   32697   32706       2   32679   32688   32694       2
   32676   32661   32679       2   32676   32685   32694       2   32676   32685
   32697       2   32664   32676   32685       2   32661   32676   32664       2
   32661   32676   32685       2   32661   32679   32688       2   32655   32640
   32661       2   32643   32664   32676       2   32640   32625   32643       2
   32640   32661   32676       2   32640   32661   32679       2   32637   32655
   32640       2   32634   32622   32637       2   32628   32646   32634       2
   32625   32640   32655       2   32625   32640   32661       2   32625   32643
   32664       2   32622   32616   32625       2   32622   32634   32646       2
   32622   32637   32655       2   32619   32616   32622       2   32619   32616
   32625       2   32619   32628   32646       2   32616   32619   32628       2
   32616   32622   32634       2   32616   32622   32637       2   32616   32625
   32640       2   32616   32625   32643       2   32811   32820   32814       2
   32805   32814   32820       2   32802   32793   32805       2   32802   32811
   32820       2   32796   32802   32811       2   32793   32802   32796       2
   32793   32802   32811       2   32793   32805   32814       2   32787   32796
   32802       2   32784   32769   32787       2   32784   32793   32802       2
   32784   32793   32805       2   32772   32784   32793       2   32769   32784
   32772       2   32769   32784   32793       2   32769   32787   32796       2
   32763   32748   32769       2   32751   32772   32784       2   32748   32733
   32751       2   32748   32769   32784       2   32748   32769   32787       2
   32745   32763   32748       2   32742   32730   32745       2   32736   32754
   32742       2   32733   32748   32763       2   32733   32748   32769       2
   32733   32751   32772       2   32730   32724   32733       2   32730   32742
   32754       2   32730   32745   32763       2   32727   32724   32730       2
   32727   32724   32733       2   32727   32736   32754       2   32724   32727
   32736       2   32724   32730   32742       2   32724   32730   32745       2
   32724   32733   32748       2   32724   32733   32751       2   32919   32928
   32922       2   32913   32922   32928       2   32910   32901   32913       2
   32910   32919   32928       2   32904   32910   32919       2   32901   32910
   32904       2   32901   32910   32919       2   32901   32913   32922       2
   32895   32904   32910       2   32892   32877   32895       2   32892   32901
   32910       2   32892   32901   32913       2   32880   32892   32901       2
   32877   32892   32880       2   32877   32892   32901       2   32877   32895
   32904       2   32871   32856   32877       2   32859   32880   32892       2
   32856   32841   32859       2   32856   32877   32892       2   32856   32877
   32895       2   32853   32871   32856       2   32850   32838   32853       2
   32844   32862   32850       2   32841   32856   32871       2   32841   32856
   32877       2   32841   32859   32880       2   32838   32832   32841       2
   32838   32850   32862       2   32838   32853   32871       2   32835   32832
   32838       2   32835   32832   32841       2   32835   32844   32862       2
   32832   32835   32844       2   32832   32838   32850       2   32832   32838
   32853       2   32832   32841   32856       2   32832   32841   32859       2
   33027   33036   33030       2   33021   33030   33036       2   33018   33009
   33021       2   33018   33027   33036       2   33012   33018   33027       2
   33009   33018   33012       2   33009   33018   33027       2   33009   33021
   33030       2   33003   33012   33018       2   33000   32985   33003       2
   33000   33009   33018       2   33000   33009   33021       2   32988   33000
   33009       2   32985   33000   32988       2   32985   33000   33009       2
   32985   33003   33012       2   32979   32964   32985       2   32967   32988
   33000       2   32964   32949   32967       2   32964   32985   33000       2
   32964   32985   33003       2   32961   32979   32964       2   32958   32946
   32961       2   32952   32970   32958       2   32949   32964   32979       2
   32949   32964   32985       2   32949   32967   32988       2   32946   32940
   32949       2   32946   32958   32970       2   32946   32961   32979       2
   32943   32940   32946       2   32943   32940   32949       2   32943   32952
   32970       2   32940   32943   32952       2   32940   32946   32958       2
   32940   32946   32961       2   32940   32949   32964       2   32940   32949
   32967       2   33135   33144   33138       2   33129   33138   33144       2
   33126   33117   33129       2   33126   33135   33144       2   33120   33126
   33135       2   33117   33126   33120       2   33117   33126   33135       2
   33117   33129   33138       2   33111   33120   33126       2   33108   33093
   33111       2   33108   33117   33126       2   33108   33117   33129       2
   33096   33108   33117       2   33093   33108   33096       2   33093   33108
   33117       2   33093   33111   33120       2   33087   33072   33093       2
   33075   33096   33108       2   33072   33057   33075       2   33072   33093
   33108       2   33072   33093   33111       2   33069   33087   33072       2
   33066   33054   33069       2   33060   33078   33066       2   33057   33072
   33087       2   33057   33072   33093       2   33057   33075   33096       2
   33054   33048   33057       2   33054   33066   33078       2   33054   33069
   33087       2   33051   33048   33054       2   33051   33048   33057       2
   33051   33060   33078       2   33048   33051   33060       2   33048   33054
   33066       2   33048   33054   33069       2   33048   33057   33072       2
   33048   33057   33075       2   33243   33252   33246       2   33237   33246
   33252       2   33234   33225   33237       2   33234   33243   33252       2
   33228   33234   33243       2   33225   33234   33228       2   33225   33234
   33243       2   33225   33237   33246       2   33219   33228   33234       2
   33216   33201   33219       2   33216   33225   33234       2   33216   33225
   33237       2   33204   33216   33225       2   33201   33216   33204       2
   33201   33216   33225       2   33201   33219   33228       2   33195   33180
   33201       2   33183   33204   33216       2   33180   33165   33183       2
   33180   33201   33216       2   33180   33201   33219       2   33177   33195
   33180       2   33174   33162   33177       2   33168   33186   33174       2
   33165   33180   33195       2   33165   33180   33201       2   33165   33183
   33204       2   33162   33156   33165       2   33162   33174   33186       2
   33162   33177   33195       2   33159   33156   33162       2   33159   33156
   33165       2   33159   33168   33186       2   33156   33159   33168       2
   33156   33162   33174       2   33156   33162   33177       2   33156   33165
   33180       2   33156   33165   33183       2   33351   33360   33354       2
   33345   33354   33360       2   33342   33333   33345       2   33342   33351
   33360       2   33336   33342   33351       2   33333   33342   33336       2
   33333   33342   33351       2   33333   33345   33354       2   33327   33336
   33342       2   33324   33309   33327       2   33324   33333   33342       2
   33324   33333   33345       2   33312   33324   33333       2   33309   33324
   33312       2   33309   33324   33333       2   33309   33327   33336       2
   33303   33288   33309       2   33291   33312   33324       2   33288   33273
   33291       2   33288   33309   33324       2   33288   33309   33327       2
   33285   33303   33288       2   33282   33270   33285       2   33276   33294
   33282       2   33273   33288   33303       2   33273   33288   33309       2
   33273   33291   33312       2   33270   33264   33273       2   33270   33282
   33294       2   33270   33285   33303       2   33267   33264   33270       2
   33267   33264   33273       2   33267   33276   33294       2   33264   33267
   33276       2   33264   33270   33282       2   33264   33270   33285       2
   33264   33273   33288       2   33264   33273   33291       2   33459   33468
   33462       2   33453   33462   33468       2   33450   33441   33453       2
   33450   33459   33468       2   33444   33450   33459       2   33441   33450
   33444       2   33441   33450   33459       2   33441   33453   33462       2
   33435   33444   33450       2   33432   33417   33435       2   33432   33441
   33450       2   33432   33441   33453       2   33420   33432   33441       2
   33417   33432   33420       2   33417   33432   33441       2   33417   33435
   33444       2   33411   33396   33417       2   33399   33420   33432       2
   33396   33381   33399       2   33396   33417   33432       2   33396   33417
   33435       2   33393   33411   33396       2   33390   33378   33393       2
   33384   33402   33390       2   33381   33396   33411       2   33381   33396
   33417       2   33381   33399   33420       2   33378   33372   33381       2
   33378   33390   33402       2   33378   33393   33411       2   33375   33372
   33378       2   33375   33372   33381       2   33375   33384   33402       2
   33372   33375   33384       2   33372   33378   33390       2   33372   33378
   33393       2   33372   33381   33396       2   33372   33381   33399       2
   33567   33576   33570       2   33561   33570   33576       2   33558   33549
   33561       2   33558   33567   33576       2   33552   33558   33567       2
   33549   33558   33552       2   33549   33558   33567       2   33549   33561
   33570       2   33543   33552   33558       2   33540   33525   33543       2
   33540   33549   33558       2   33540   33549   33561       2   33528   33540
   33549       2   33525   33540   33528       2   33525   33540   33549       2
   33525   33543   33552       2   33519   33504   33525       2   33507   33528
   33540       2   33504   33489   33507       2   33504   33525   33540       2
   33504   33525   33543       2   33501   33519   33504       2   33498   33486
   33501       2   33492   33510   33498       2   33489   33504   33519       2
   33489   33504   33525       2   33489   33507   33528       2   33486   33480
   33489       2   33486   33498   33510       2   33486   33501   33519       2
   33483   33480   33486       2   33483   33480   33489       2   33483   33492
   33510       2   33480   33483   33492       2   33480   33486   33498       2
   33480   33486   33501       2   33480   33489   33504       2   33480   33489
   33507       2   33675   33684   33678       2   33669   33678   33684       2
   33666   33657   33669       2   33666   33675   33684       2   33660   33666
   33675       2   33657   33666   33660       2   33657   33666   33675       2
   33657   33669   33678       2   33651   33660   33666       2   33648   33633
   33651       2   33648   33657   33666       2   33648   33657   33669       2
   33636   33648   33657       2   33633   33648   33636       2   33633   33648
   33657       2   33633   33651   33660       2   33627   33612   33633       2
   33615   33636   33648       2   33612   33597   33615       2   33612   33633
   33648       2   33612   33633   33651       2   33609   33627   33612       2
   33606   33594   33609       2   33600   33618   33606       2   33597   33612
   33627       2   33597   33612   33633       2   33597   33615   33636       2
   33594   33588   33597       2   33594   33606   33618       2   33594   33609
   33627       2   33591   33588   33594       2   33591   33588   33597       2
   33591   33600   33618       2   33588   33591   33600       2   33588   33594
   33606       2   33588   33594   33609       2   33588   33597   33612       2
   33588   33597   33615       2   33783   33792   33786       2   33777   33786
   33792       2   33774   33765   33777       2   33774   33783   33792       2
   33768   33774   33783       2   33765   33774   33768       2   33765   33774
   33783       2   33765   33777   33786       2   33759   33768   33774       2
   33756   33741   33759       2   33756   33765   33774       2   33756   33765
   33777       2   33744   33756   33765       2   33741   33756   33744       2
   33741   33756   33765       2   33741   33759   33768       2   33735   33720
   33741       2   33723   33744   33756       2   33720   33705   33723       2
   33720   33741   33756       2   33720   33741   33759       2   33717   33735
   33720       2   33714   33702   33717       2   33708   33726   33714       2
   33705   33720   33735       2   33705   33720   33741       2   33705   33723
   33744       2   33702   33696   33705       2   33702   33714   33726       2
   33702   33717   33735       2   33699   33696   33702       2   33699   33696
   33705       2   33699   33708   33726       2   33696   33699   33708       2
   33696   33702   33714       2   33696   33702   33717       2   33696   33705
   33720       2   33696   33705   33723       2   33891   33900   33894       2
   33885   33894   33900       2   33882   33873   33885       2   33882   33891
   33900       2   33876   33882   33891       2   33873   33882   33876       2
   33873   33882   33891       2   33873   33885   33894       2   33867   33876
   33882       2   33864   33849   33867       2   33864   33873   33882       2
   33864   33873   33885       2   33852   33864   33873       2   33849   33864
   33852       2   33849   33864   33873       2   33849   33867   33876       2
   33843   33828   33849       2   33831   33852   33864       2   33828   33813
   33831       2   33828   33849   33864       2   33828   33849   33867       2
   33825   33843   33828       2   33822   33810   33825       2   33816   33834
   33822       2   33813   33828   33843       2   33813   33828   33849       2
   33813   33831   33852       2   33810   33804   33813       2   33810   33822
   33834       2   33810   33825   33843       2   33807   33804   33810       2
   33807   33804   33813       2   33807   33816   33834       2   33804   33807
   33816       2   33804   33810   33822       2   33804   33810   33825       2
   33804   33813   33828       2   33804   33813   33831       2   33999   34008
   34002       2   33993   34002   34008       2   33990   33981   33993       2
   33990   33999   34008       2   33984   33990   33999       2   33981   33990
   33984       2   33981   33990   33999       2   33981   33993   34002       2
   33975   33984   33990       2   33972   33957   33975       2   33972   33981
   33990       2   33972   33981   33993       2   33960   33972   33981       2
   33957   33972   33960       2   33957   33972   33981       2   33957   33975
   33984       2   33951   33936   33957       2   33939   33960   33972       2
   33936   33921   33939       2   33936   33957   33972       2   33936   33957
   33975       2   33933   33951   33936       2   33930   33918   33933       2
   33924   33942   33930       2   33921   33936   33951       2   33921   33936
   33957       2   33921   33939   33960       2   33918   33912   33921       2
   33918   33930   33942       2   33918   33933   33951       2   33915   33912
   33918       2   33915   33912   33921       2   33915   33924   33942       2
   33912   33915   33924       2   33912   33918   33930       2   33912   33918
   33933       2   33912   33921   33936       2   33912   33921   33939       2
   34107   34116   34110       2   34101   34110   34116       2   34098   34089
   34101       2   34098   34107   34116       2   34092   34098   34107       2
   34089   34098   34092       2   34089   34098   34107       2   34089   34101
   34110       2   34083   34092   34098       2   34080   34065   34083       2
   34080   34089   34098       2   34080   34089   34101       2   34068   34080
   34089       2   34065   34080   34068       2   34065   34080   34089       2
   34065   34083   34092       2   34059   34044   34065       2   34047   34068
   34080       2   34044   34029   34047       2   34044   34065   34080       2
   34044   34065   34083       2   34041   34059   34044       2   34038   34026
   34041       2   34032   34050   34038       2   34029   34044   34059       2
   34029   34044   34065       2   34029   34047   34068       2   34026   34020
   34029       2   34026   34038   34050       2   34026   34041   34059       2
   34023   34020   34026       2   34023   34020   34029       2   34023   34032
   34050       2   34020   34023   34032       2   34020   34026   34038       2
   34020   34026   34041       2   34020   34029   34044       2   34020   34029
   34047       2   34215   34224   34218       2   34209   34218   34224       2
   34206   34197   34209       2   34206   34215   34224       2   34200   34206
   34215       2   34197   34206   34200       2   34197   34206   34215       2
   34197   34209   34218       2   34191   34200   34206       2   34188   34173
   34191       2   34188   34197   34206       2   34188   34197   34209       2
   34176   34188   34197       2   34173   34188   34176       2   34173   34188
   34197       2   34173   34191   34200       2   34167   34152   34173       2
   34155   34176   34188       2   34152   34137   34155       2   34152   34173
   34188       2   34152   34173   34191       2   34149   34167   34152       2
   34146   34134   34149       2   34140   34158   34146       2   34137   34152
   34167       2   34137   34152   34173       2   34137   34155   34176       2
   34134   34128   34137       2   34134   34146   34158       2   34134   34149
   34167       2   34131   34128   34134       2   34131   34128   34137       2
   34131   34140   34158       2   34128   34131   34140       2   34128   34134
   34146       2   34128   34134   34149       2   34128   34137   34152       2
   34128   34137   34155       2   34323   34332   34326       2   34317   34326
   34332       2   34314   34305   34317       2   34314   34323   34332       2
   34308   34314   34323       2   34305   34314   34308       2   34305   34314
   34323       2   34305   34317   34326       2   34299   34308   34314       2
   34296   34281   34299       2   34296   34305   34314       2   34296   34305
   34317       2   34284   34296   34305       2   34281   34296   34284       2
   34281   34296   34305       2   34281   34299   34308       2   34275   34260
   34281       2   34263   34284   34296       2   34260   34245   34263       2
   34260   34281   34296       2   34260   34281   34299       2   34257   34275
   34260       2   34254   34242   34257       2   34248   34266   34254       2
   34245   34260   34275       2   34245   34260   34281       2   34245   34263
   34284       2   34242   34236   34245       2   34242   34254   34266       2
   34242   34257   34275       2   34239   34236   34242       2   34239   34236
   34245       2   34239   34248   34266       2   34236   34239   34248       2
   34236   34242   34254       2   34236   34242   34257       2   34236   34245
   34260       2   34236   34245   34263       2   34431   34440   34434       2
   34425   34434   34440       2   34422   34413   34425       2   34422   34431
   34440       2   34416   34422   34431       2   34413   34422   34416       2
   34413   34422   34431       2   34413   34425   34434       2   34407   34416
   34422       2   34404   34389   34407       2   34404   34413   34422       2
   34404   34413   34425       2   34392   34404   34413       2   34389   34404
   34392       2   34389   34404   34413       2   34389   34407   34416       2
   34383   34368   34389       2   34371   34392   34404       2   34368   34353
   34371       2   34368   34389   34404       2   34368   34389   34407       2
   34365   34383   34368       2   34362   34350   34365       2   34356   34374
   34362       2   34353   34368   34383       2   34353   34368   34389       2
   34353   34371   34392       2   34350   34344   34353       2   34350   34362
   34374       2   34350   34365   34383       2   34347   34344   34350       2
   34347   34344   34353       2   34347   34356   34374       2   34344   34347
   34356       2   34344   34350   34362       2   34344   34350   34365       2
   34344   34353   34368       2   34344   34353   34371       2   34539   34548
   34542       2   34533   34542   34548       2   34530   34521   34533       2
   34530   34539   34548       2   34524   34530   34539       2   34521   34530
   34524       2   34521   34530   34539       2   34521   34533   34542       2
   34515   34524   34530       2   34512   34497   34515       2   34512   34521
   34530       2   34512   34521   34533       2   34500   34512   34521       2
   34497   34512   34500       2   34497   34512   34521       2   34497   34515
   34524       2   34491   34476   34497       2   34479   34500   34512       2
   34476   34461   34479       2   34476   34497   34512       2   34476   34497
   34515       2   34473   34491   34476       2   34470   34458   34473       2
   34464   34482   34470       2   34461   34476   34491       2   34461   34476
   34497       2   34461   34479   34500       2   34458   34452   34461       2
   34458   34470   34482       2   34458   34473   34491       2   34455   34452
   34458       2   34455   34452   34461       2   34455   34464   34482       2
   34452   34455   34464       2   34452   34458   34470       2   34452   34458
   34473       2   34452   34461   34476       2   34452   34461   34479       2
   34647   34656   34650       2   34641   34650   34656       2   34638   34629
   34641       2   34638   34647   34656       2   34632   34638   34647       2
   34629   34638   34632       2   34629   34638   34647       2   34629   34641
   34650       2   34623   34632   34638       2   34620   34605   34623       2
   34620   34629   34638       2   34620   34629   34641       2   34608   34620
   34629       2   34605   34620   34608       2   34605   34620   34629       2
   34605   34623   34632       2   34599   34584   34605       2   34587   34608
   34620       2   34584   34569   34587       2   34584   34605   34620       2
   34584   34605   34623       2   34581   34599   34584       2   34578   34566
   34581       2   34572   34590   34578       2   34569   34584   34599       2
   34569   34584   34605       2   34569   34587   34608       2   34566   34560
   34569       2   34566   34578   34590       2   34566   34581   34599       2
   34563   34560   34566       2   34563   34560   34569       2   34563   34572
   34590       2   34560   34563   34572       2   34560   34566   34578       2
   34560   34566   34581       2   34560   34569   34584       2   34560   34569
   34587       2   34755   34764   34758       2   34749   34758   34764       2
   34746   34737   34749       2   34746   34755   34764       2   34740   34746
   34755       2   34737   34746   34740       2   34737   34746   34755       2
   34737   34749   34758       2   34731   34740   34746       2   34728   34713
   34731       2   34728   34737   34746       2   34728   34737   34749       2
   34716   34728   34737       2   34713   34728   34716       2   34713   34728
   34737       2   34713   34731   34740       2   34707   34692   34713       2
   34695   34716   34728       2   34692   34677   34695       2   34692   34713
   34728       2   34692   34713   34731       2   34689   34707   34692       2
   34686   34674   34689       2   34680   34698   34686       2   34677   34692
   34707       2   34677   34692   34713       2   34677   34695   34716       2
   34674   34668   34677       2   34674   34686   34698       2   34674   34689
   34707       2   34671   34668   34674       2   34671   34668   34677       2
   34671   34680   34698       2   34668   34671   34680       2   34668   34674
   34686       2   34668   34674   34689       2   34668   34677   34692       2
   34668   34677   34695       2   34863   34872   34866       2   34857   34866
   34872       2   34854   34845   34857       2   34854   34863   34872       2
   34848   34854   34863       2   34845   34854   34848       2   34845   34854
   34863       2   34845   34857   34866       2   34839   34848   34854       2
   34836   34821   34839       2   34836   34845   34854       2   34836   34845
   34857       2   34824   34836   34845       2   34821   34836   34824       2
   34821   34836   34845       2   34821   34839   34848       2   34815   34800
   34821       2   34803   34824   34836       2   34800   34785   34803       2
   34800   34821   34836       2   34800   34821   34839       2   34797   34815
   34800       2   34794   34782   34797       2   34788   34806   34794       2
   34785   34800   34815       2   34785   34800   34821       2   34785   34803
   34824       2   34782   34776   34785       2   34782   34794   34806       2
   34782   34797   34815       2   34779   34776   34782       2   34779   34776
   34785       2   34779   34788   34806       2   34776   34779   34788       2
   34776   34782   34794       2   34776   34782   34797       2   34776   34785
   34800       2   34776   34785   34803       2   34971   34980   34974       2
   34965   34974   34980       2   34962   34953   34965       2   34962   34971
   34980       2   34956   34962   34971       2   34953   34962   34956       2
   34953   34962   34971       2   34953   34965   34974       2   34947   34956
   34962       2   34944   34929   34947       2   34944   34953   34962       2
   34944   34953   34965       2   34932   34944   34953       2   34929   34944
   34932       2   34929   34944   34953       2   34929   34947   34956       2
   34923   34908   34929       2   34911   34932   34944       2   34908   34893
   34911       2   34908   34929   34944       2   34908   34929   34947       2
   34905   34923   34908       2   34902   34890   34905       2   34896   34914
   34902       2   34893   34908   34923       2   34893   34908   34929       2
   34893   34911   34932       2   34890   34884   34893       2   34890   34902
   34914       2   34890   34905   34923       2   34887   34884   34890       2
   34887   34884   34893       2   34887   34896   34914       2   34884   34887
   34896       2   34884   34890   34902       2   34884   34890   34905       2
   34884   34893   34908       2   34884   34893   34911       2   35079   35088
   35082       2   35073   35082   35088       2   35070   35061   35073       2
   35070   35079   35088       2   35064   35070   35079       2   35061   35070
   35064       2   35061   35070   35079       2   35061   35073   35082       2
   35055   35064   35070       2   35052   35037   35055       2   35052   35061
   35070       2   35052   35061   35073       2   35040   35052   35061       2
   35037   35052   35040       2   35037   35052   35061       2   35037   35055
   35064       2   35031   35016   35037       2   35019   35040   35052       2
   35016   35001   35019       2   35016   35037   35052       2   35016   35037
   35055       2   35013   35031   35016       2   35010   34998   35013       2
   35004   35022   35010       2   35001   35016   35031       2   35001   35016
   35037       2   35001   35019   35040       2   34998   34992   35001       2
   34998   35010   35022       2   34998   35013   35031       2   34995   34992
   34998       2   34995   34992   35001       2   34995   35004   35022       2
   34992   34995   35004       2   34992   34998   35010       2   34992   34998
   35013       2   34992   35001   35016       2   34992   35001   35019       2
   35187   35196   35190       2   35181   35190   35196       2   35178   35169
   35181       2   35178   35187   35196       2   35172   35178   35187       2
   35169   35178   35172       2   35169   35178   35187       2   35169   35181
   35190       2   35163   35172   35178       2   35160   35145   35163       2
   35160   35169   35178       2   35160   35169   35181       2   35148   35160
   35169       2   35145   35160   35148       2   35145   35160   35169       2
   35145   35163   35172       2   35139   35124   35145       2   35127   35148
   35160       2   35124   35109   35127       2   35124   35145   35160       2
   35124   35145   35163       2   35121   35139   35124       2   35118   35106
   35121       2   35112   35130   35118       2   35109   35124   35139       2
   35109   35124   35145       2   35109   35127   35148       2   35106   35100
   35109       2   35106   35118   35130       2   35106   35121   35139       2
   35103   35100   35106       2   35103   35100   35109       2   35103   35112
   35130       2   35100   35103   35112       2   35100   35106   35118       2
   35100   35106   35121       2   35100   35109   35124       2   35100   35109
   35127       2   35295   35304   35298       2   35289   35298   35304       2
   35286   35277   35289       2   35286   35295   35304       2   35280   35286
   35295       2   35277   35286   35280       2   35277   35286   35295       2
   35277   35289   35298       2   35271   35280   35286       2   35268   35253
   35271       2   35268   35277   35286       2   35268   35277   35289       2
   35256   35268   35277       2   35253   35268   35256       2   35253   35268
   35277       2   35253   35271   35280       2   35247   35232   35253       2
   35235   35256   35268       2   35232   35217   35235       2   35232   35253
   35268       2   35232   35253   35271       2   35229   35247   35232       2
   35226   35214   35229       2   35220   35238   35226       2   35217   35232
   35247       2   35217   35232   35253       2   35217   35235   35256       2
   35214   35208   35217       2   35214   35226   35238       2   35214   35229
   35247       2   35211   35208   35214       2   35211   35208   35217       2
   35211   35220   35238       2   35208   35211   35220       2   35208   35214
   35226       2   35208   35214   35229       2   35208   35217   35232       2
   35208   35217   35235       2   35403   35412   35406       2   35397   35406
   35412       2   35394   35385   35397       2   35394   35403   35412       2
   35388   35394   35403       2   35385   35394   35388       2   35385   35394
   35403       2   35385   35397   35406       2   35379   35388   35394       2
   35376   35361   35379       2   35376   35385   35394       2   35376   35385
   35397       2   35364   35376   35385       2   35361   35376   35364       2
   35361   35376   35385       2   35361   35379   35388       2   35355   35340
   35361       2   35343   35364   35376       2   35340   35325   35343       2
   35340   35361   35376       2   35340   35361   35379       2   35337   35355
   35340       2   35334   35322   35337       2   35328   35346   35334       2
   35325   35340   35355       2   35325   35340   35361       2   35325   35343
   35364       2   35322   35316   35325       2   35322   35334   35346       2
   35322   35337   35355       2   35319   35316   35322       2   35319   35316
   35325       2   35319   35328   35346       2   35316   35319   35328       2
   35316   35322   35334       2   35316   35322   35337       2   35316   35325
   35340       2   35316   35325   35343       2   35511   35520   35514       2
   35505   35514   35520       2   35502   35493   35505       2   35502   35511
   35520       2   35496   35502   35511       2   35493   35502   35496       2
   35493   35502   35511       2   35493   35505   35514       2   35487   35496
   35502       2   35484   35469   35487       2   35484   35493   35502       2
   35484   35493   35505       2   35472   35484   35493       2   35469   35484
   35472       2   35469   35484   35493       2   35469   35487   35496       2
   35463   35448   35469       2   35451   35472   35484       2   35448   35433
   35451       2   35448   35469   35484       2   35448   35469   35487       2
   35445   35463   35448       2   35442   35430   35445       2   35436   35454
   35442       2   35433   35448   35463       2   35433   35448   35469       2
   35433   35451   35472       2   35430   35424   35433       2   35430   35442
   35454       2   35430   35445   35463       2   35427   35424   35430       2
   35427   35424   35433       2   35427   35436   35454       2   35424   35427
   35436       2   35424   35430   35442       2   35424   35430   35445       2
   35424   35433   35448       2   35424   35433   35451       2   35619   35628
   35622       2   35613   35622   35628       2   35610   35601   35613       2
   35610   35619   35628       2   35604   35610   35619       2   35601   35610
   35604       2   35601   35610   35619       2   35601   35613   35622       2
   35595   35604   35610       2   35592   35577   35595       2   35592   35601
   35610       2   35592   35601   35613       2   35580   35592   35601       2
   35577   35592   35580       2   35577   35592   35601       2   35577   35595
   35604       2   35571   35556   35577       2   35559   35580   35592       2
   35556   35541   35559       2   35556   35577   35592       2   35556   35577
   35595       2   35553   35571   35556       2   35550   35538   35553       2
   35544   35562   35550       2   35541   35556   35571       2   35541   35556
   35577       2   35541   35559   35580       2   35538   35532   35541       2
   35538   35550   35562       2   35538   35553   35571       2   35535   35532
   35538       2   35535   35532   35541       2   35535   35544   35562       2
   35532   35535   35544       2   35532   35538   35550       2   35532   35538
   35553       2   35532   35541   35556       2   35532   35541   35559       2
   35727   35736   35730       2   35721   35730   35736       2   35718   35709
   35721       2   35718   35727   35736       2   35712   35718   35727       2
   35709   35718   35712       2   35709   35718   35727       2   35709   35721
   35730       2   35703   35712   35718       2   35700   35685   35703       2
   35700   35709   35718       2   35700   35709   35721       2   35688   35700
   35709       2   35685   35700   35688       2   35685   35700   35709       2
   35685   35703   35712       2   35679   35664   35685       2   35667   35688
   35700       2   35664   35649   35667       2   35664   35685   35700       2
   35664   35685   35703       2   35661   35679   35664       2   35658   35646
   35661       2   35652   35670   35658       2   35649   35664   35679       2
   35649   35664   35685       2   35649   35667   35688       2   35646   35640
   35649       2   35646   35658   35670       2   35646   35661   35679       2
   35643   35640   35646       2   35643   35640   35649       2   35643   35652
   35670       2   35640   35643   35652       2   35640   35646   35658       2
   35640   35646   35661       2   35640   35649   35664       2   35640   35649
   35667       2   35835   35844   35838       2   35829   35838   35844       2
   35826   35817   35829       2   35826   35835   35844       2   35820   35826
   35835       2   35817   35826   35820       2   35817   35826   35835       2
   35817   35829   35838       2   35811   35820   35826       2   35808   35793
   35811       2   35808   35817   35826       2   35808   35817   35829       2
   35796   35808   35817       2   35793   35808   35796       2   35793   35808
   35817       2   35793   35811   35820       2   35787   35772   35793       2
   35775   35796   35808       2   35772   35757   35775       2   35772   35793
   35808       2   35772   35793   35811       2   35769   35787   35772       2
   35766   35754   35769       2   35760   35778   35766       2   35757   35772
   35787       2   35757   35772   35793       2   35757   35775   35796       2
   35754   35748   35757       2   35754   35766   35778       2   35754   35769
   35787       2   35751   35748   35754       2   35751   35748   35757       2
   35751   35760   35778       2   35748   35751   35760       2   35748   35754
   35766       2   35748   35754   35769       2   35748   35757   35772       2
   35748   35757   35775       2   35943   35952   35946       2   35937   35946
   35952       2   35934   35925   35937       2   35934   35943   35952       2
   35928   35934   35943       2   35925   35934   35928       2   35925   35934
   35943       2   35925   35937   35946       2   35919   35928   35934       2
   35916   35901   35919       2   35916   35925   35934       2   35916   35925
   35937       2   35904   35916   35925       2   35901   35916   35904       2
   35901   35916   35925       2   35901   35919   35928       2   35895   35880
   35901       2   35883   35904   35916       2   35880   35865   35883       2
   35880   35901   35916       2   35880   35901   35919       2   35877   35895
   35880       2   35874   35862   35877       2   35868   35886   35874       2
   35865   35880   35895       2   35865   35880   35901       2   35865   35883
   35904       2   35862   35856   35865       2   35862   35874   35886       2
   35862   35877   35895       2   35859   35856   35862       2   35859   35856
   35865       2   35859   35868   35886       2   35856   35859   35868       2
   35856   35862   35874       2   35856   35862   35877       2   35856   35865
   35880       2   35856   35865   35883       2   36051   36060   36054       2
   36045   36054   36060       2   36042   36033   36045       2   36042   36051
   36060       2   36036   36042   36051       2   36033   36042   36036       2
   36033   36042   36051       2   36033   36045   36054       2   36027   36036
   36042       2   36024   36009   36027       2   36024   36033   36042       2
   36024   36033   36045       2   36012   36024   36033       2   36009   36024
   36012       2   36009   36024   36033       2   36009   36027   36036       2
   36003   35988   36009       2   35991   36012   36024       2   35988   35973
   35991       2   35988   36009   36024       2   35988   36009   36027       2
   35985   36003   35988       2   35982   35970   35985       2   35976   35994
   35982       2   35973   35988   36003       2   35973   35988   36009       2
   35973   35991   36012       2   35970   35964   35973       2   35970   35982
   35994       2   35970   35985   36003       2   35967   35964   35970       2
   35967   35964   35973       2   35967   35976   35994       2   35964   35967
   35976       2   35964   35970   35982       2   35964   35970   35985       2
   35964   35973   35988       2   35964   35973   35991       2   36159   36168
   36162       2   36153   36162   36168       2   36150   36141   36153       2
   36150   36159   36168       2   36144   36150   36159       2   36141   36150
   36144       2   36141   36150   36159       2   36141   36153   36162       2
   36135   36144   36150       2   36132   36117   36135       2   36132   36141
   36150       2   36132   36141   36153       2   36120   36132   36141       2
   36117   36132   36120       2   36117   36132   36141       2   36117   36135
   36144       2   36111   36096   36117       2   36099   36120   36132       2
   36096   36081   36099       2   36096   36117   36132       2   36096   36117
   36135       2   36093   36111   36096       2   36090   36078   36093       2
   36084   36102   36090       2   36081   36096   36111       2   36081   36096
   36117       2   36081   36099   36120       2   36078   36072   36081       2
   36078   36090   36102       2   36078   36093   36111       2   36075   36072
   36078       2   36075   36072   36081       2   36075   36084   36102       2
   36072   36075   36084       2   36072   36078   36090       2   36072   36078
   36093       2   36072   36081   36096       2   36072   36081   36099       2
   36267   36276   36270       2   36261   36270   36276       2   36258   36249
   36261       2   36258   36267   36276       2   36252   36258   36267       2
   36249   36258   36252       2   36249   36258   36267       2   36249   36261
   36270       2   36243   36252   36258       2   36240   36225   36243       2
   36240   36249   36258       2   36240   36249   36261       2   36228   36240
   36249       2   36225   36240   36228       2   36225   36240   36249       2
   36225   36243   36252       2   36219   36204   36225       2   36207   36228
   36240       2   36204   36189   36207       2   36204   36225   36240       2
   36204   36225   36243       2   36201   36219   36204       2   36198   36186
   36201       2   36192   36210   36198       2   36189   36204   36219       2
   36189   36204   36225       2   36189   36207   36228       2   36186   36180
   36189       2   36186   36198   36210       2   36186   36201   36219       2
   36183   36180   36186       2   36183   36180   36189       2   36183   36192
   36210       2   36180   36183   36192       2   36180   36186   36198       2
   36180   36186   36201       2   36180   36189   36204       2   36180   36189
   36207       2   36375   36384   36378       2   36369   36378   36384       2
   36366   36357   36369       2   36366   36375   36384       2   36360   36366
   36375       2   36357   36366   36360       2   36357   36366   36375       2
   36357   36369   36378       2   36351   36360   36366       2   36348   36333
   36351       2   36348   36357   36366       2   36348   36357   36369       2
   36336   36348   36357       2   36333   36348   36336       2   36333   36348
   36357       2   36333   36351   36360       2   36327   36312   36333       2
   36315   36336   36348       2   36312   36297   36315       2   36312   36333
   36348       2   36312   36333   36351       2   36309   36327   36312       2
   36306   36294   36309       2   36300   36318   36306       2   36297   36312
   36327       2   36297   36312   36333       2   36297   36315   36336       2
   36294   36288   36297       2   36294   36306   36318       2   36294   36309
   36327       2   36291   36288   36294       2   36291   36288   36297       2
   36291   36300   36318       2   36288   36291   36300       2   36288   36294
   36306       2   36288   36294   36309       2   36288   36297   36312       2
   36288   36297   36315       2   36483   36492   36486       2   36477   36486
   36492       2   36474   36465   36477       2   36474   36483   36492       2
   36468   36474   36483       2   36465   36474   36468       2   36465   36474
   36483       2   36465   36477   36486       2   36459   36468   36474       2
   36456   36441   36459       2   36456   36465   36474       2   36456   36465
   36477       2   36444   36456   36465       2   36441   36456   36444       2
   36441   36456   36465       2   36441   36459   36468       2   36435   36420
   36441       2   36423   36444   36456       2   36420   36405   36423       2
   36420   36441   36456       2   36420   36441   36459       2   36417   36435
   36420       2   36414   36402   36417       2   36408   36426   36414       2
   36405   36420   36435       2   36405   36420   36441       2   36405   36423
   36444       2   36402   36396   36405       2   36402   36414   36426       2
   36402   36417   36435       2   36399   36396   36402       2   36399   36396
   36405       2   36399   36408   36426       2   36396   36399   36408       2
   36396   36402   36414       2   36396   36402   36417       2   36396   36405
   36420       2   36396   36405   36423       2   36591   36600   36594       2
   36585   36594   36600       2   36582   36573   36585       2   36582   36591
   36600       2   36576   36582   36591       2   36573   36582   36576       2
   36573   36582   36591       2   36573   36585   36594       2   36567   36576
   36582       2   36564   36549   36567       2   36564   36573   36582       2
   36564   36573   36585       2   36552   36564   36573       2   36549   36564
   36552       2   36549   36564   36573       2   36549   36567   36576       2
   36543   36528   36549       2   36531   36552   36564       2   36528   36513
   36531       2   36528   36549   36564       2   36528   36549   36567       2
   36525   36543   36528       2   36522   36510   36525       2   36516   36534
   36522       2   36513   36528   36543       2   36513   36528   36549       2
   36513   36531   36552       2   36510   36504   36513       2   36510   36522
   36534       2   36510   36525   36543       2   36507   36504   36510       2
   36507   36504   36513       2   36507   36516   36534       2   36504   36507
   36516       2   36504   36510   36522       2   36504   36510   36525       2
   36504   36513   36528       2   36504   36513   36531       2   36699   36708
   36702       2   36693   36702   36708       2   36690   36681   36693       2
   36690   36699   36708       2   36684   36690   36699       2   36681   36690
   36684       2   36681   36690   36699       2   36681   36693   36702       2
   36675   36684   36690       2   36672   36657   36675       2   36672   36681
   36690       2   36672   36681   36693       2   36660   36672   36681       2
   36657   36672   36660       2   36657   36672   36681       2   36657   36675
   36684       2   36651   36636   36657       2   36639   36660   36672       2
   36636   36621   36639       2   36636   36657   36672       2   36636   36657
   36675       2   36633   36651   36636       2   36630   36618   36633       2
   36624   36642   36630       2   36621   36636   36651       2   36621   36636
   36657       2   36621   36639   36660       2   36618   36612   36621       2
   36618   36630   36642       2   36618   36633   36651       2   36615   36612
   36618       2   36615   36612   36621       2   36615   36624   36642       2
   36612   36615   36624       2   36612   36618   36630       2   36612   36618
   36633       2   36612   36621   36636       2   36612   36621   36639       2
   36807   36816   36810       2   36801   36810   36816       2   36798   36789
   36801       2   36798   36807   36816       2   36792   36798   36807       2
   36789   36798   36792       2   36789   36798   36807       2   36789   36801
   36810       2   36783   36792   36798       2   36780   36765   36783       2
   36780   36789   36798       2   36780   36789   36801       2   36768   36780
   36789       2   36765   36780   36768       2   36765   36780   36789       2
   36765   36783   36792       2   36759   36744   36765       2   36747   36768
   36780       2   36744   36729   36747       2   36744   36765   36780       2
   36744   36765   36783       2   36741   36759   36744       2   36738   36726
   36741       2   36732   36750   36738       2   36729   36744   36759       2
   36729   36744   36765       2   36729   36747   36768       2   36726   36720
   36729       2   36726   36738   36750       2   36726   36741   36759       2
   36723   36720   36726       2   36723   36720   36729       2   36723   36732
   36750       2   36720   36723   36732       2   36720   36726   36738       2
   36720   36726   36741       2   36720   36729   36744       2   36720   36729
   36747       2   36915   36924   36918       2   36909   36918   36924       2
   36906   36897   36909       2   36906   36915   36924       2   36900   36906
   36915       2   36897   36906   36900       2   36897   36906   36915       2
   36897   36909   36918       2   36891   36900   36906       2   36888   36873
   36891       2   36888   36897   36906       2   36888   36897   36909       2
   36876   36888   36897       2   36873   36888   36876       2   36873   36888
   36897       2   36873   36891   36900       2   36867   36852   36873       2
   36855   36876   36888       2   36852   36837   36855       2   36852   36873
   36888       2   36852   36873   36891       2   36849   36867   36852       2
   36846   36834   36849       2   36840   36858   36846       2   36837   36852
   36867       2   36837   36852   36873       2   36837   36855   36876       2
   36834   36828   36837       2   36834   36846   36858       2   36834   36849
   36867       2   36831   36828   36834       2   36831   36828   36837       2
   36831   36840   36858       2   36828   36831   36840       2   36828   36834
   36846       2   36828   36834   36849       2   36828   36837   36852       2
   36828   36837   36855       2   37023   37032   37026       2   37017   37026
   37032       2   37014   37005   37017       2   37014   37023   37032       2
   37008   37014   37023       2   37005   37014   37008       2   37005   37014
   37023       2   37005   37017   37026       2   36999   37008   37014       2
   36996   36981   36999       2   36996   37005   37014       2   36996   37005
   37017       2   36984   36996   37005       2   36981   36996   36984       2
   36981   36996   37005       2   36981   36999   37008       2   36975   36960
   36981       2   36963   36984   36996       2   36960   36945   36963       2
   36960   36981   36996       2   36960   36981   36999       2   36957   36975
   36960       2   36954   36942   36957       2   36948   36966   36954       2
   36945   36960   36975       2   36945   36960   36981       2   36945   36963
   36984       2   36942   36936   36945       2   36942   36954   36966       2
   36942   36957   36975       2   36939   36936   36942       2   36939   36936
   36945       2   36939   36948   36966       2   36936   36939   36948       2
   36936   36942   36954       2   36936   36942   36957       2   36936   36945
   36960       2   36936   36945   36963       2   37131   37140   37134       2
   37125   37134   37140       2   37122   37113   37125       2   37122   37131
   37140       2   37116   37122   37131       2   37113   37122   37116       2
   37113   37122   37131       2   37113   37125   37134       2   37107   37116
   37122       2   37104   37089   37107       2   37104   37113   37122       2
   37104   37113   37125       2   37092   37104   37113       2   37089   37104
   37092       2   37089   37104   37113       2   37089   37107   37116       2
   37083   37068   37089       2   37071   37092   37104       2   37068   37053
   37071       2   37068   37089   37104       2   37068   37089   37107       2
   37065   37083   37068       2   37062   37050   37065       2   37056   37074
   37062       2   37053   37068   37083       2   37053   37068   37089       2
   37053   37071   37092       2   37050   37044   37053       2   37050   37062
   37074       2   37050   37065   37083       2   37047   37044   37050       2
   37047   37044   37053       2   37047   37056   37074       2   37044   37047
   37056       2   37044   37050   37062       2   37044   37050   37065       2
   37044   37053   37068       2   37044   37053   37071       2   37239   37248
   37242       2   37233   37242   37248       2   37230   37221   37233       2
   37230   37239   37248       2   37224   37230   37239       2   37221   37230
   37224       2   37221   37230   37239       2   37221   37233   37242       2
   37215   37224   37230       2   37212   37197   37215       2   37212   37221
   37230       2   37212   37221   37233       2   37200   37212   37221       2
   37197   37212   37200       2   37197   37212   37221       2   37197   37215
   37224       2   37191   37176   37197       2   37179   37200   37212       2
   37176   37161   37179       2   37176   37197   37212       2   37176   37197
   37215       2   37173   37191   37176       2   37170   37158   37173       2
   37164   37182   37170       2   37161   37176   37191       2   37161   37176
   37197       2   37161   37179   37200       2   37158   37152   37161       2
   37158   37170   37182       2   37158   37173   37191       2   37155   37152
   37158       2   37155   37152   37161       2   37155   37164   37182       2
   37152   37155   37164       2   37152   37158   37170       2   37152   37158
   37173       2   37152   37161   37176       2   37152   37161   37179       2
   37347   37356   37350       2   37341   37350   37356       2   37338   37329
   37341       2   37338   37347   37356       2   37332   37338   37347       2
   37329   37338   37332       2   37329   37338   37347       2   37329   37341
   37350       2   37323   37332   37338       2   37320   37305   37323       2
   37320   37329   37338       2   37320   37329   37341       2   37308   37320
   37329       2   37305   37320   37308       2   37305   37320   37329       2
   37305   37323   37332       2   37299   37284   37305       2   37287   37308
   37320       2   37284   37269   37287       2   37284   37305   37320       2
   37284   37305   37323       2   37281   37299   37284       2   37278   37266
   37281       2   37272   37290   37278       2   37269   37284   37299       2
   37269   37284   37305       2   37269   37287   37308       2   37266   37260
   37269       2   37266   37278   37290       2   37266   37281   37299       2
   37263   37260   37266       2   37263   37260   37269       2   37263   37272
   37290       2   37260   37263   37272       2   37260   37266   37278       2
   37260   37266   37281       2   37260   37269   37284       2   37260   37269
   37287       2   37455   37464   37458       2   37449   37458   37464       2
   37446   37437   37449       2   37446   37455   37464       2   37440   37446
   37455       2   37437   37446   37440       2   37437   37446   37455       2
   37437   37449   37458       2   37431   37440   37446       2   37428   37413
   37431       2   37428   37437   37446       2   37428   37437   37449       2
   37416   37428   37437       2   37413   37428   37416       2   37413   37428
   37437       2   37413   37431   37440       2   37407   37392   37413       2
   37395   37416   37428       2   37392   37377   37395       2   37392   37413
   37428       2   37392   37413   37431       2   37389   37407   37392       2
   37386   37374   37389       2   37380   37398   37386       2   37377   37392
   37407       2   37377   37392   37413       2   37377   37395   37416       2
   37374   37368   37377       2   37374   37386   37398       2   37374   37389
   37407       2   37371   37368   37374       2   37371   37368   37377       2
   37371   37380   37398       2   37368   37371   37380       2   37368   37374
   37386       2   37368   37374   37389       2   37368   37377   37392       2
   37368   37377   37395       2   37563   37572   37566       2   37557   37566
   37572       2   37554   37545   37557       2   37554   37563   37572       2
   37548   37554   37563       2   37545   37554   37548       2   37545   37554
   37563       2   37545   37557   37566       2   37539   37548   37554       2
   37536   37521   37539       2   37536   37545   37554       2   37536   37545
   37557       2   37524   37536   37545       2   37521   37536   37524       2
   37521   37536   37545       2   37521   37539   37548       2   37515   37500
   37521       2   37503   37524   37536       2   37500   37485   37503       2
   37500   37521   37536       2   37500   37521   37539       2   37497   37515
   37500       2   37494   37482   37497       2   37488   37506   37494       2
   37485   37500   37515       2   37485   37500   37521       2   37485   37503
   37524       2   37482   37476   37485       2   37482   37494   37506       2
   37482   37497   37515       2   37479   37476   37482       2   37479   37476
   37485       2   37479   37488   37506       2   37476   37479   37488       2
   37476   37482   37494       2   37476   37482   37497       2   37476   37485
   37500       2   37476   37485   37503       2   37671   37680   37674       2
   37665   37674   37680       2   37662   37653   37665       2   37662   37671
   37680       2   37656   37662   37671       2   37653   37662   37656       2
   37653   37662   37671       2   37653   37665   37674       2   37647   37656
   37662       2   37644   37629   37647       2   37644   37653   37662       2
   37644   37653   37665       2   37632   37644   37653       2   37629   37644
   37632       2   37629   37644   37653       2   37629   37647   37656       2
   37623   37608   37629       2   37611   37632   37644       2   37608   37593
   37611       2   37608   37629   37644       2   37608   37629   37647       2
   37605   37623   37608       2   37602   37590   37605       2   37596   37614
   37602       2   37593   37608   37623       2   37593   37608   37629       2
   37593   37611   37632       2   37590   37584   37593       2   37590   37602
   37614       2   37590   37605   37623       2   37587   37584   37590       2
   37587   37584   37593       2   37587   37596   37614       2   37584   37587
   37596       2   37584   37590   37602       2   37584   37590   37605       2
   37584   37593   37608       2   37584   37593   37611       2   37779   37788
   37782       2   37773   37782   37788       2   37770   37761   37773       2
   37770   37779   37788       2   37764   37770   37779       2   37761   37770
   37764       2   37761   37770   37779       2   37761   37773   37782       2
   37755   37764   37770       2   37752   37737   37755       2   37752   37761
   37770       2   37752   37761   37773       2   37740   37752   37761       2
   37737   37752   37740       2   37737   37752   37761       2   37737   37755
   37764       2   37731   37716   37737       2   37719   37740   37752       2
   37716   37701   37719       2   37716   37737   37752       2   37716   37737
   37755       2   37713   37731   37716       2   37710   37698   37713       2
   37704   37722   37710       2   37701   37716   37731       2   37701   37716
   37737       2   37701   37719   37740       2   37698   37692   37701       2
   37698   37710   37722       2   37698   37713   37731       2   37695   37692
   37698       2   37695   37692   37701       2   37695   37704   37722       2
   37692   37695   37704       2   37692   37698   37710       2   37692   37698
   37713       2   37692   37701   37716       2   37692   37701   37719       2
   37887   37896   37890       2   37881   37890   37896       2   37878   37869
   37881       2   37878   37887   37896       2   37872   37878   37887       2
   37869   37878   37872       2   37869   37878   37887       2   37869   37881
   37890       2   37863   37872   37878       2   37860   37845   37863       2
   37860   37869   37878       2   37860   37869   37881       2   37848   37860
   37869       2   37845   37860   37848       2   37845   37860   37869       2
   37845   37863   37872       2   37839   37824   37845       2   37827   37848
   37860       2   37824   37809   37827       2   37824   37845   37860       2
   37824   37845   37863       2   37821   37839   37824       2   37818   37806
   37821       2   37812   37830   37818       2   37809   37824   37839       2
   37809   37824   37845       2   37809   37827   37848       2   37806   37800
   37809       2   37806   37818   37830       2   37806   37821   37839       2
   37803   37800   37806       2   37803   37800   37809       2   37803   37812
   37830       2   37800   37803   37812       2   37800   37806   37818       2
   37800   37806   37821       2   37800   37809   37824       2   37800   37809
   37827       2   37995   38004   37998       2   37989   37998   38004       2
   37986   37977   37989       2   37986   37995   38004       2   37980   37986
   37995       2   37977   37986   37980       2   37977   37986   37995       2
   37977   37989   37998       2   37971   37980   37986       2   37968   37953
   37971       2   37968   37977   37986       2   37968   37977   37989       2
   37956   37968   37977       2   37953   37968   37956       2   37953   37968
   37977       2   37953   37971   37980       2   37947   37932   37953       2
   37935   37956   37968       2   37932   37917   37935       2   37932   37953
   37968       2   37932   37953   37971       2   37929   37947   37932       2
   37926   37914   37929       2   37920   37938   37926       2   37917   37932
   37947       2   37917   37932   37953       2   37917   37935   37956       2
   37914   37908   37917       2   37914   37926   37938       2   37914   37929
   37947       2   37911   37908   37914       2   37911   37908   37917       2
   37911   37920   37938       2   37908   37911   37920       2   37908   37914
   37926       2   37908   37914   37929       2   37908   37917   37932       2
   37908   37917   37935       2   38103   38112   38106       2   38097   38106
   38112       2   38094   38085   38097       2   38094   38103   38112       2
   38088   38094   38103       2   38085   38094   38088       2   38085   38094
   38103       2   38085   38097   38106       2   38079   38088   38094       2
   38076   38061   38079       2   38076   38085   38094       2   38076   38085
   38097       2   38064   38076   38085       2   38061   38076   38064       2
   38061   38076   38085       2   38061   38079   38088       2   38055   38040
   38061       2   38043   38064   38076       2   38040   38025   38043       2
   38040   38061   38076       2   38040   38061   38079       2   38037   38055
   38040       2   38034   38022   38037       2   38028   38046   38034       2
   38025   38040   38055       2   38025   38040   38061       2   38025   38043
   38064       2   38022   38016   38025       2   38022   38034   38046       2
   38022   38037   38055       2   38019   38016   38022       2   38019   38016
   38025       2   38019   38028   38046       2   38016   38019   38028       2
   38016   38022   38034       2   38016   38022   38037       2   38016   38025
   38040       2   38016   38025   38043       2   38211   38220   38214       2
   38205   38214   38220       2   38202   38193   38205       2   38202   38211
   38220       2   38196   38202   38211       2   38193   38202   38196       2
   38193   38202   38211       2   38193   38205   38214       2   38187   38196
   38202       2   38184   38169   38187       2   38184   38193   38202       2
   38184   38193   38205       2   38172   38184   38193       2   38169   38184
   38172       2   38169   38184   38193       2   38169   38187   38196       2
   38163   38148   38169       2   38151   38172   38184       2   38148   38133
   38151       2   38148   38169   38184       2   38148   38169   38187       2
   38145   38163   38148       2   38142   38130   38145       2   38136   38154
   38142       2   38133   38148   38163       2   38133   38148   38169       2
   38133   38151   38172       2   38130   38124   38133       2   38130   38142
   38154       2   38130   38145   38163       2   38127   38124   38130       2
   38127   38124   38133       2   38127   38136   38154       2   38124   38127
   38136       2   38124   38130   38142       2   38124   38130   38145       2
   38124   38133   38148       2   38124   38133   38151       2   38319   38328
   38322       2   38313   38322   38328       2   38310   38301   38313       2
   38310   38319   38328       2   38304   38310   38319       2   38301   38310
   38304       2   38301   38310   38319       2   38301   38313   38322       2
   38295   38304   38310       2   38292   38277   38295       2   38292   38301
   38310       2   38292   38301   38313       2   38280   38292   38301       2
   38277   38292   38280       2   38277   38292   38301       2   38277   38295
   38304       2   38271   38256   38277       2   38259   38280   38292       2
   38256   38241   38259       2   38256   38277   38292       2   38256   38277
   38295       2   38253   38271   38256       2   38250   38238   38253       2
   38244   38262   38250       2   38241   38256   38271       2   38241   38256
   38277       2   38241   38259   38280       2   38238   38232   38241       2
   38238   38250   38262       2   38238   38253   38271       2   38235   38232
   38238       2   38235   38232   38241       2   38235   38244   38262       2
   38232   38235   38244       2   38232   38238   38250       2   38232   38238
   38253       2   38232   38241   38256       2   38232   38241   38259       2
   38427   38436   38430       2   38421   38430   38436       2   38418   38409
   38421       2   38418   38427   38436       2   38412   38418   38427       2
   38409   38418   38412       2   38409   38418   38427       2   38409   38421
   38430       2   38403   38412   38418       2   38400   38385   38403       2
   38400   38409   38418       2   38400   38409   38421       2   38388   38400
   38409       2   38385   38400   38388       2   38385   38400   38409       2
   38385   38403   38412       2   38379   38364   38385       2   38367   38388
   38400       2   38364   38349   38367       2   38364   38385   38400       2
   38364   38385   38403       2   38361   38379   38364       2   38358   38346
   38361       2   38352   38370   38358       2   38349   38364   38379       2
   38349   38364   38385       2   38349   38367   38388       2   38346   38340
   38349       2   38346   38358   38370       2   38346   38361   38379       2
   38343   38340   38346       2   38343   38340   38349       2   38343   38352
   38370       2   38340   38343   38352       2   38340   38346   38358       2
   38340   38346   38361       2   38340   38349   38364       2   38340   38349
   38367       2   38535   38544   38538       2   38529   38538   38544       2
   38526   38517   38529       2   38526   38535   38544       2   38520   38526
   38535       2   38517   38526   38520       2   38517   38526   38535       2
   38517   38529   38538       2   38511   38520   38526       2   38508   38493
   38511       2   38508   38517   38526       2   38508   38517   38529       2
   38496   38508   38517       2   38493   38508   38496       2   38493   38508
   38517       2   38493   38511   38520       2   38487   38472   38493       2
   38475   38496   38508       2   38472   38457   38475       2   38472   38493
   38508       2   38472   38493   38511       2   38469   38487   38472       2
   38466   38454   38469       2   38460   38478   38466       2   38457   38472
   38487       2   38457   38472   38493       2   38457   38475   38496       2
   38454   38448   38457       2   38454   38466   38478       2   38454   38469
   38487       2   38451   38448   38454       2   38451   38448   38457       2
   38451   38460   38478       2   38448   38451   38460       2   38448   38454
   38466       2   38448   38454   38469       2   38448   38457   38472       2
   38448   38457   38475       2   38643   38652   38646       2   38637   38646
   38652       2   38634   38625   38637       2   38634   38643   38652       2
   38628   38634   38643       2   38625   38634   38628       2   38625   38634
   38643       2   38625   38637   38646       2   38619   38628   38634       2
   38616   38601   38619       2   38616   38625   38634       2   38616   38625
   38637       2   38604   38616   38625       2   38601   38616   38604       2
   38601   38616   38625       2   38601   38619   38628       2   38595   38580
   38601       2   38583   38604   38616       2   38580   38565   38583       2
   38580   38601   38616       2   38580   38601   38619       2   38577   38595
   38580       2   38574   38562   38577       2   38568   38586   38574       2
   38565   38580   38595       2   38565   38580   38601       2   38565   38583
   38604       2   38562   38556   38565       2   38562   38574   38586       2
   38562   38577   38595       2   38559   38556   38562       2   38559   38556
   38565       2   38559   38568   38586       2   38556   38559   38568       2
   38556   38562   38574       2   38556   38562   38577       2   38556   38565
   38580       2   38556   38565   38583       2   38751   38760   38754       2
   38745   38754   38760       2   38742   38733   38745       2   38742   38751
   38760       2   38736   38742   38751       2   38733   38742   38736       2
   38733   38742   38751       2   38733   38745   38754       2   38727   38736
   38742       2   38724   38709   38727       2   38724   38733   38742       2
   38724   38733   38745       2   38712   38724   38733       2   38709   38724
   38712       2   38709   38724   38733       2   38709   38727   38736       2
   38703   38688   38709       2   38691   38712   38724       2   38688   38673
   38691       2   38688   38709   38724       2   38688   38709   38727       2
   38685   38703   38688       2   38682   38670   38685       2   38676   38694
   38682       2   38673   38688   38703       2   38673   38688   38709       2
   38673   38691   38712       2   38670   38664   38673       2   38670   38682
   38694       2   38670   38685   38703       2   38667   38664   38670       2
   38667   38664   38673       2   38667   38676   38694       2   38664   38667
   38676       2   38664   38670   38682       2   38664   38670   38685       2
   38664   38673   38688       2   38664   38673   38691       2   38859   38868
   38862       2   38853   38862   38868       2   38850   38841   38853       2
   38850   38859   38868       2   38844   38850   38859       2   38841   38850
   38844       2   38841   38850   38859       2   38841   38853   38862       2
   38835   38844   38850       2   38832   38817   38835       2   38832   38841
   38850       2   38832   38841   38853       2   38820   38832   38841       2
   38817   38832   38820       2   38817   38832   38841       2   38817   38835
   38844       2   38811   38796   38817       2   38799   38820   38832       2
   38796   38781   38799       2   38796   38817   38832       2   38796   38817
   38835       2   38793   38811   38796       2   38790   38778   38793       2
   38784   38802   38790       2   38781   38796   38811       2   38781   38796
   38817       2   38781   38799   38820       2   38778   38772   38781       2
   38778   38790   38802       2   38778   38793   38811       2   38775   38772
   38778       2   38775   38772   38781       2   38775   38784   38802       2
   38772   38775   38784       2   38772   38778   38790       2   38772   38778
   38793       2   38772   38781   38796       2   38772   38781   38799       2
   38967   38976   38970       2   38961   38970   38976       2   38958   38949
   38961       2   38958   38967   38976       2   38952   38958   38967       2
   38949   38958   38952       2   38949   38958   38967       2   38949   38961
   38970       2   38943   38952   38958       2   38940   38925   38943       2
   38940   38949   38958       2   38940   38949   38961       2   38928   38940
   38949       2   38925   38940   38928       2   38925   38940   38949       2
   38925   38943   38952       2   38919   38904   38925       2   38907   38928
   38940       2   38904   38889   38907       2   38904   38925   38940       2
   38904   38925   38943       2   38901   38919   38904       2   38898   38886
   38901       2   38892   38910   38898       2   38889   38904   38919       2
   38889   38904   38925       2   38889   38907   38928       2   38886   38880
   38889       2   38886   38898   38910       2   38886   38901   38919       2
   38883   38880   38886       2   38883   38880   38889       2   38883   38892
   38910       2   38880   38883   38892       2   38880   38886   38898       2
   38880   38886   38901       2   38880   38889   38904       2   38880   38889
   38907       2   39075   39084   39078       2   39069   39078   39084       2
   39066   39057   39069       2   39066   39075   39084       2   39060   39066
   39075       2   39057   39066   39060       2   39057   39066   39075       2
   39057   39069   39078       2   39051   39060   39066       2   39048   39033
   39051       2   39048   39057   39066       2   39048   39057   39069       2
   39036   39048   39057       2   39033   39048   39036       2   39033   39048
   39057       2   39033   39051   39060       2   39027   39012   39033       2
   39015   39036   39048       2   39012   38997   39015       2   39012   39033
   39048       2   39012   39033   39051       2   39009   39027   39012       2
   39006   38994   39009       2   39000   39018   39006       2   38997   39012
   39027       2   38997   39012   39033       2   38997   39015   39036       2
   38994   38988   38997       2   38994   39006   39018       2   38994   39009
   39027       2   38991   38988   38994       2   38991   38988   38997       2
   38991   39000   39018       2   38988   38991   39000       2   38988   38994
   39006       2   38988   38994   39009       2   38988   38997   39012       2
   38988   38997   39015       2   39183   39192   39186       2   39177   39186
   39192       2   39174   39165   39177       2   39174   39183   39192       2
   39168   39174   39183       2   39165   39174   39168       2   39165   39174
   39183       2   39165   39177   39186       2   39159   39168   39174       2
   39156   39141   39159       2   39156   39165   39174       2   39156   39165
   39177       2   39144   39156   39165       2   39141   39156   39144       2
   39141   39156   39165       2   39141   39159   39168       2   39135   39120
   39141       2   39123   39144   39156       2   39120   39105   39123       2
   39120   39141   39156       2   39120   39141   39159       2   39117   39135
   39120       2   39114   39102   39117       2   39108   39126   39114       2
   39105   39120   39135       2   39105   39120   39141       2   39105   39123
   39144       2   39102   39096   39105       2   39102   39114   39126       2
   39102   39117   39135       2   39099   39096   39102       2   39099   39096
   39105       2   39099   39108   39126       2   39096   39099   39108       2
   39096   39102   39114       2   39096   39102   39117       2   39096   39105
   39120       2   39096   39105   39123       2   39291   39300   39294       2
   39285   39294   39300       2   39282   39273   39285       2   39282   39291
   39300       2   39276   39282   39291       2   39273   39282   39276       2
   39273   39282   39291       2   39273   39285   39294       2   39267   39276
   39282       2   39264   39249   39267       2   39264   39273   39282       2
   39264   39273   39285       2   39252   39264   39273       2   39249   39264
   39252       2   39249   39264   39273       2   39249   39267   39276       2
   39243   39228   39249       2   39231   39252   39264       2   39228   39213
   39231       2   39228   39249   39264       2   39228   39249   39267       2
   39225   39243   39228       2   39222   39210   39225       2   39216   39234
   39222       2   39213   39228   39243       2   39213   39228   39249       2
   39213   39231   39252       2   39210   39204   39213       2   39210   39222
   39234       2   39210   39225   39243       2   39207   39204   39210       2
   39207   39204   39213       2   39207   39216   39234       2   39204   39207
   39216       2   39204   39210   39222       2   39204   39210   39225       2
   39204   39213   39228       2   39204   39213   39231       2   39399   39408
   39402       2   39393   39402   39408       2   39390   39381   39393       2
   39390   39399   39408       2   39384   39390   39399       2   39381   39390
   39384       2   39381   39390   39399       2   39381   39393   39402       2
   39375   39384   39390       2   39372   39357   39375       2   39372   39381
   39390       2   39372   39381   39393       2   39360   39372   39381       2
   39357   39372   39360       2   39357   39372   39381       2   39357   39375
   39384       2   39351   39336   39357       2   39339   39360   39372       2
   39336   39321   39339       2   39336   39357   39372       2   39336   39357
   39375       2   39333   39351   39336       2   39330   39318   39333       2
   39324   39342   39330       2   39321   39336   39351       2   39321   39336
   39357       2   39321   39339   39360       2   39318   39312   39321       2
   39318   39330   39342       2   39318   39333   39351       2   39315   39312
   39318       2   39315   39312   39321       2   39315   39324   39342       2
   39312   39315   39324       2   39312   39318   39330       2   39312   39318
   39333       2   39312   39321   39336       2   39312   39321   39339       2
   39507   39516   39510       2   39501   39510   39516       2   39498   39489
   39501       2   39498   39507   39516       2   39492   39498   39507       2
   39489   39498   39492       2   39489   39498   39507       2   39489   39501
   39510       2   39483   39492   39498       2   39480   39465   39483       2
   39480   39489   39498       2   39480   39489   39501       2   39468   39480
   39489       2   39465   39480   39468       2   39465   39480   39489       2
   39465   39483   39492       2   39459   39444   39465       2   39447   39468
   39480       2   39444   39429   39447       2   39444   39465   39480       2
   39444   39465   39483       2   39441   39459   39444       2   39438   39426
   39441       2   39432   39450   39438       2   39429   39444   39459       2
   39429   39444   39465       2   39429   39447   39468       2   39426   39420
   39429       2   39426   39438   39450       2   39426   39441   39459       2
   39423   39420   39426       2   39423   39420   39429       2   39423   39432
   39450       2   39420   39423   39432       2   39420   39426   39438       2
   39420   39426   39441       2   39420   39429   39444       2   39420   39429
   39447       2   39615   39624   39618       2   39609   39618   39624       2
   39606   39597   39609       2   39606   39615   39624       2   39600   39606
   39615       2   39597   39606   39600       2   39597   39606   39615       2
   39597   39609   39618       2   39591   39600   39606       2   39588   39573
   39591       2   39588   39597   39606       2   39588   39597   39609       2
   39576   39588   39597       2   39573   39588   39576       2   39573   39588
   39597       2   39573   39591   39600       2   39567   39552   39573       2
   39555   39576   39588       2   39552   39537   39555       2   39552   39573
   39588       2   39552   39573   39591       2   39549   39567   39552       2
   39546   39534   39549       2   39540   39558   39546       2   39537   39552
   39567       2   39537   39552   39573       2   39537   39555   39576       2
   39534   39528   39537       2   39534   39546   39558       2   39534   39549
   39567       2   39531   39528   39534       2   39531   39528   39537       2
   39531   39540   39558       2   39528   39531   39540       2   39528   39534
   39546       2   39528   39534   39549       2   39528   39537   39552       2
   39528   39537   39555       2   39723   39732   39726       2   39717   39726
   39732       2   39714   39705   39717       2   39714   39723   39732       2
   39708   39714   39723       2   39705   39714   39708       2   39705   39714
   39723       2   39705   39717   39726       2   39699   39708   39714       2
   39696   39681   39699       2   39696   39705   39714       2   39696   39705
   39717       2   39684   39696   39705       2   39681   39696   39684       2
   39681   39696   39705       2   39681   39699   39708       2   39675   39660
   39681       2   39663   39684   39696       2   39660   39645   39663       2
   39660   39681   39696       2   39660   39681   39699       2   39657   39675
   39660       2   39654   39642   39657       2   39648   39666   39654       2
   39645   39660   39675       2   39645   39660   39681       2   39645   39663
   39684       2   39642   39636   39645       2   39642   39654   39666       2
   39642   39657   39675       2   39639   39636   39642       2   39639   39636
   39645       2   39639   39648   39666       2   39636   39639   39648       2
   39636   39642   39654       2   39636   39642   39657       2   39636   39645
   39660       2   39636   39645   39663       2   39831   39840   39834       2
   39825   39834   39840       2   39822   39813   39825       2   39822   39831
   39840       2   39816   39822   39831       2   39813   39822   39816       2
   39813   39822   39831       2   39813   39825   39834       2   39807   39816
   39822       2   39804   39789   39807       2   39804   39813   39822       2
   39804   39813   39825       2   39792   39804   39813       2   39789   39804
   39792       2   39789   39804   39813       2   39789   39807   39816       2
   39783   39768   39789       2   39771   39792   39804       2   39768   39753
   39771       2   39768   39789   39804       2   39768   39789   39807       2
   39765   39783   39768       2   39762   39750   39765       2   39756   39774
   39762       2   39753   39768   39783       2   39753   39768   39789       2
   39753   39771   39792       2   39750   39744   39753       2   39750   39762
   39774       2   39750   39765   39783       2   39747   39744   39750       2
   39747   39744   39753       2   39747   39756   39774       2   39744   39747
   39756       2   39744   39750   39762       2   39744   39750   39765       2
   39744   39753   39768       2   39744   39753   39771       2   39939   39948
   39942       2   39933   39942   39948       2   39930   39921   39933       2
   39930   39939   39948       2   39924   39930   39939       2   39921   39930
   39924       2   39921   39930   39939       2   39921   39933   39942       2
   39915   39924   39930       2   39912   39897   39915       2   39912   39921
   39930       2   39912   39921   39933       2   39900   39912   39921       2
   39897   39912   39900       2   39897   39912   39921       2   39897   39915
   39924       2   39891   39876   39897       2   39879   39900   39912       2
   39876   39861   39879       2   39876   39897   39912       2   39876   39897
   39915       2   39873   39891   39876       2   39870   39858   39873       2
   39864   39882   39870       2   39861   39876   39891       2   39861   39876
   39897       2   39861   39879   39900       2   39858   39852   39861       2
   39858   39870   39882       2   39858   39873   39891       2   39855   39852
   39858       2   39855   39852   39861       2   39855   39864   39882       2
   39852   39855   39864       2   39852   39858   39870       2   39852   39858
   39873       2   39852   39861   39876       2   39852   39861   39879       2
   40047   40056   40050       2   40041   40050   40056       2   40038   40029
   40041       2   40038   40047   40056       2   40032   40038   40047       2
   40029   40038   40032       2   40029   40038   40047       2   40029   40041
   40050       2   40023   40032   40038       2   40020   40005   40023       2
   40020   40029   40038       2   40020   40029   40041       2   40008   40020
   40029       2   40005   40020   40008       2   40005   40020   40029       2
   40005   40023   40032       2   39999   39984   40005       2   39987   40008
   40020       2   39984   39969   39987       2   39984   40005   40020       2
   39984   40005   40023       2   39981   39999   39984       2   39978   39966
   39981       2   39972   39990   39978       2   39969   39984   39999       2
   39969   39984   40005       2   39969   39987   40008       2   39966   39960
   39969       2   39966   39978   39990       2   39966   39981   39999       2
   39963   39960   39966       2   39963   39960   39969       2   39963   39972
   39990       2   39960   39963   39972       2   39960   39966   39978       2
   39960   39966   39981       2   39960   39969   39984       2   39960   39969
   39987       2   40155   40164   40158       2   40149   40158   40164       2
   40146   40137   40149       2   40146   40155   40164       2   40140   40146
   40155       2   40137   40146   40140       2   40137   40146   40155       2
   40137   40149   40158       2   40131   40140   40146       2   40128   40113
   40131       2   40128   40137   40146       2   40128   40137   40149       2
   40116   40128   40137       2   40113   40128   40116       2   40113   40128
   40137       2   40113   40131   40140       2   40107   40092   40113       2
   40095   40116   40128       2   40092   40077   40095       2   40092   40113
   40128       2   40092   40113   40131       2   40089   40107   40092       2
   40086   40074   40089       2   40080   40098   40086       2   40077   40092
   40107       2   40077   40092   40113       2   40077   40095   40116       2
   40074   40068   40077       2   40074   40086   40098       2   40074   40089
   40107       2   40071   40068   40074       2   40071   40068   40077       2
   40071   40080   40098       2   40068   40071   40080       2   40068   40074
   40086       2   40068   40074   40089       2   40068   40077   40092       2
   40068   40077   40095       2   40263   40272   40266       2   40257   40266
   40272       2   40254   40245   40257       2   40254   40263   40272       2
   40248   40254   40263       2   40245   40254   40248       2   40245   40254
   40263       2   40245   40257   40266       2   40239   40248   40254       2
   40236   40221   40239       2   40236   40245   40254       2   40236   40245
   40257       2   40224   40236   40245       2   40221   40236   40224       2
   40221   40236   40245       2   40221   40239   40248       2   40215   40200
   40221       2   40203   40224   40236       2   40200   40185   40203       2
   40200   40221   40236       2   40200   40221   40239       2   40197   40215
   40200       2   40194   40182   40197       2   40188   40206   40194       2
   40185   40200   40215       2   40185   40200   40221       2   40185   40203
   40224       2   40182   40176   40185       2   40182   40194   40206       2
   40182   40197   40215       2   40179   40176   40182       2   40179   40176
   40185       2   40179   40188   40206       2   40176   40179   40188       2
   40176   40182   40194       2   40176   40182   40197       2   40176   40185
   40200       2   40176   40185   40203       2   40371   40380   40374       2
   40365   40374   40380       2   40362   40353   40365       2   40362   40371
   40380       2   40356   40362   40371       2   40353   40362   40356       2
   40353   40362   40371       2   40353   40365   40374       2   40347   40356
   40362       2   40344   40329   40347       2   40344   40353   40362       2
   40344   40353   40365       2   40332   40344   40353       2   40329   40344
   40332       2   40329   40344   40353       2   40329   40347   40356       2
   40323   40308   40329       2   40311   40332   40344       2   40308   40293
   40311       2   40308   40329   40344       2   40308   40329   40347       2
   40305   40323   40308       2   40302   40290   40305       2   40296   40314
   40302       2   40293   40308   40323       2   40293   40308   40329       2
   40293   40311   40332       2   40290   40284   40293       2   40290   40302
   40314       2   40290   40305   40323       2   40287   40284   40290       2
   40287   40284   40293       2   40287   40296   40314       2   40284   40287
   40296       2   40284   40290   40302       2   40284   40290   40305       2
   40284   40293   40308       2   40284   40293   40311       2   40479   40488
   40482       2   40473   40482   40488       2   40470   40461   40473       2
   40470   40479   40488       2   40464   40470   40479       2   40461   40470
   40464       2   40461   40470   40479       2   40461   40473   40482       2
   40455   40464   40470       2   40452   40437   40455       2   40452   40461
   40470       2   40452   40461   40473       2   40440   40452   40461       2
   40437   40452   40440       2   40437   40452   40461       2   40437   40455
   40464       2   40431   40416   40437       2   40419   40440   40452       2
   40416   40401   40419       2   40416   40437   40452       2   40416   40437
   40455       2   40413   40431   40416       2   40410   40398   40413       2
   40404   40422   40410       2   40401   40416   40431       2   40401   40416
   40437       2   40401   40419   40440       2   40398   40392   40401       2
   40398   40410   40422       2   40398   40413   40431       2   40395   40392
   40398       2   40395   40392   40401       2   40395   40404   40422       2
   40392   40395   40404       2   40392   40398   40410       2   40392   40398
   40413       2   40392   40401   40416       2   40392   40401   40419       2
   40587   40596   40590       2   40581   40590   40596       2   40578   40569
   40581       2   40578   40587   40596       2   40572   40578   40587       2
   40569   40578   40572       2   40569   40578   40587       2   40569   40581
   40590       2   40563   40572   40578       2   40560   40545   40563       2
   40560   40569   40578       2   40560   40569   40581       2   40548   40560
   40569       2   40545   40560   40548       2   40545   40560   40569       2
   40545   40563   40572       2   40539   40524   40545       2   40527   40548
   40560       2   40524   40509   40527       2   40524   40545   40560       2
   40524   40545   40563       2   40521   40539   40524       2   40518   40506
   40521       2   40512   40530   40518       2   40509   40524   40539       2
   40509   40524   40545       2   40509   40527   40548       2   40506   40500
   40509       2   40506   40518   40530       2   40506   40521   40539       2
   40503   40500   40506       2   40503   40500   40509       2   40503   40512
   40530       2   40500   40503   40512       2   40500   40506   40518       2
   40500   40506   40521       2   40500   40509   40524       2   40500   40509
   40527       2   40695   40704   40698       2   40689   40698   40704       2
   40686   40677   40689       2   40686   40695   40704       2   40680   40686
   40695       2   40677   40686   40680       2   40677   40686   40695       2
   40677   40689   40698       2   40671   40680   40686       2   40668   40653
   40671       2   40668   40677   40686       2   40668   40677   40689       2
   40656   40668   40677       2   40653   40668   40656       2   40653   40668
   40677       2   40653   40671   40680       2   40647   40632   40653       2
   40635   40656   40668       2   40632   40617   40635       2   40632   40653
   40668       2   40632   40653   40671       2   40629   40647   40632       2
   40626   40614   40629       2   40620   40638   40626       2   40617   40632
   40647       2   40617   40632   40653       2   40617   40635   40656       2
   40614   40608   40617       2   40614   40626   40638       2   40614   40629
   40647       2   40611   40608   40614       2   40611   40608   40617       2
   40611   40620   40638       2   40608   40611   40620       2   40608   40614
   40626       2   40608   40614   40629       2   40608   40617   40632       2
   40608   40617   40635       2   40803   40812   40806       2   40797   40806
   40812       2   40794   40785   40797       2   40794   40803   40812       2
   40788   40794   40803       2   40785   40794   40788       2   40785   40794
   40803       2   40785   40797   40806       2   40779   40788   40794       2
   40776   40761   40779       2   40776   40785   40794       2   40776   40785
   40797       2   40764   40776   40785       2   40761   40776   40764       2
   40761   40776   40785       2   40761   40779   40788       2   40755   40740
   40761       2   40743   40764   40776       2   40740   40725   40743       2
   40740   40761   40776       2   40740   40761   40779       2   40737   40755
   40740       2   40734   40722   40737       2   40728   40746   40734       2
   40725   40740   40755       2   40725   40740   40761       2   40725   40743
   40764       2   40722   40716   40725       2   40722   40734   40746       2
   40722   40737   40755       2   40719   40716   40722       2   40719   40716
   40725       2   40719   40728   40746       2   40716   40719   40728       2
   40716   40722   40734       2   40716   40722   40737       2   40716   40725
   40740       2   40716   40725   40743       2   40911   40920   40914       2
   40905   40914   40920       2   40902   40893   40905       2   40902   40911
   40920       2   40896   40902   40911       2   40893   40902   40896       2
   40893   40902   40911       2   40893   40905   40914       2   40887   40896
   40902       2   40884   40869   40887       2   40884   40893   40902       2
   40884   40893   40905       2   40872   40884   40893       2   40869   40884
   40872       2   40869   40884   40893       2   40869   40887   40896       2
   40863   40848   40869       2   40851   40872   40884       2   40848   40833
   40851       2   40848   40869   40884       2   40848   40869   40887       2
   40845   40863   40848       2   40842   40830   40845       2   40836   40854
   40842       2   40833   40848   40863       2   40833   40848   40869       2
   40833   40851   40872       2   40830   40824   40833       2   40830   40842
   40854       2   40830   40845   40863       2   40827   40824   40830       2
   40827   40824   40833       2   40827   40836   40854       2   40824   40827
   40836       2   40824   40830   40842       2   40824   40830   40845       2
   40824   40833   40848       2   40824   40833   40851       2   41019   41028
   41022       2   41013   41022   41028       2   41010   41001   41013       2
   41010   41019   41028       2   41004   41010   41019       2   41001   41010
   41004       2   41001   41010   41019       2   41001   41013   41022       2
   40995   41004   41010       2   40992   40977   40995       2   40992   41001
   41010       2   40992   41001   41013       2   40980   40992   41001       2
   40977   40992   40980       2   40977   40992   41001       2   40977   40995
   41004       2   40971   40956   40977       2   40959   40980   40992       2
   40956   40941   40959       2   40956   40977   40992       2   40956   40977
   40995       2   40953   40971   40956       2   40950   40938   40953       2
   40944   40962   40950       2   40941   40956   40971       2   40941   40956
   40977       2   40941   40959   40980       2   40938   40932   40941       2
   40938   40950   40962       2   40938   40953   40971       2   40935   40932
   40938       2   40935   40932   40941       2   40935   40944   40962       2
   40932   40935   40944       2   40932   40938   40950       2   40932   40938
   40953       2   40932   40941   40956       2   40932   40941   40959       2
   41127   41136   41130       2   41121   41130   41136       2   41118   41109
   41121       2   41118   41127   41136       2   41112   41118   41127       2
   41109   41118   41112       2   41109   41118   41127       2   41109   41121
   41130       2   41103   41112   41118       2   41100   41085   41103       2
   41100   41109   41118       2   41100   41109   41121       2   41088   41100
   41109       2   41085   41100   41088       2   41085   41100   41109       2
   41085   41103   41112       2   41079   41064   41085       2   41067   41088
   41100       2   41064   41049   41067       2   41064   41085   41100       2
   41064   41085   41103       2   41061   41079   41064       2   41058   41046
   41061       2   41052   41070   41058       2   41049   41064   41079       2
   41049   41064   41085       2   41049   41067   41088       2   41046   41040
   41049       2   41046   41058   41070       2   41046   41061   41079       2
   41043   41040   41046       2   41043   41040   41049       2   41043   41052
   41070       2   41040   41043   41052       2   41040   41046   41058       2
   41040   41046   41061       2   41040   41049   41064       2   41040   41049
   41067       2   41235   41244   41238       2   41229   41238   41244       2
   41226   41217   41229       2   41226   41235   41244       2   41220   41226
   41235       2   41217   41226   41220       2   41217   41226   41235       2
   41217   41229   41238       2   41211   41220   41226       2   41208   41193
   41211       2   41208   41217   41226       2   41208   41217   41229       2
   41196   41208   41217       2   41193   41208   41196       2   41193   41208
   41217       2   41193   41211   41220       2   41187   41172   41193       2
   41175   41196   41208       2   41172   41157   41175       2   41172   41193
   41208       2   41172   41193   41211       2   41169   41187   41172       2
   41166   41154   41169       2   41160   41178   41166       2   41157   41172
   41187       2   41157   41172   41193       2   41157   41175   41196       2
   41154   41148   41157       2   41154   41166   41178       2   41154   41169
   41187       2   41151   41148   41154       2   41151   41148   41157       2
   41151   41160   41178       2   41148   41151   41160       2   41148   41154
   41166       2   41148   41154   41169       2   41148   41157   41172       2
   41148   41157   41175       2   41343   41352   41346       2   41337   41346
   41352       2   41334   41325   41337       2   41334   41343   41352       2
   41328   41334   41343       2   41325   41334   41328       2   41325   41334
   41343       2   41325   41337   41346       2   41319   41328   41334       2
   41316   41301   41319       2   41316   41325   41334       2   41316   41325
   41337       2   41304   41316   41325       2   41301   41316   41304       2
   41301   41316   41325       2   41301   41319   41328       2   41295   41280
   41301       2   41283   41304   41316       2   41280   41265   41283       2
   41280   41301   41316       2   41280   41301   41319       2   41277   41295
   41280       2   41274   41262   41277       2   41268   41286   41274       2
   41265   41280   41295       2   41265   41280   41301       2   41265   41283
   41304       2   41262   41256   41265       2   41262   41274   41286       2
   41262   41277   41295       2   41259   41256   41262       2   41259   41256
   41265       2   41259   41268   41286       2   41256   41259   41268       2
   41256   41262   41274       2   41256   41262   41277       2   41256   41265
   41280       2   41256   41265   41283       2   41451   41460   41454       2
   41445   41454   41460       2   41442   41433   41445       2   41442   41451
   41460       2   41436   41442   41451       2   41433   41442   41436       2
   41433   41442   41451       2   41433   41445   41454       2   41427   41436
   41442       2   41424   41409   41427       2   41424   41433   41442       2
   41424   41433   41445       2   41412   41424   41433       2   41409   41424
   41412       2   41409   41424   41433       2   41409   41427   41436       2
   41403   41388   41409       2   41391   41412   41424       2   41388   41373
   41391       2   41388   41409   41424       2   41388   41409   41427       2
   41385   41403   41388       2   41382   41370   41385       2   41376   41394
   41382       2   41373   41388   41403       2   41373   41388   41409       2
   41373   41391   41412       2   41370   41364   41373       2   41370   41382
   41394       2   41370   41385   41403       2   41367   41364   41370       2
   41367   41364   41373       2   41367   41376   41394       2   41364   41367
   41376       2   41364   41370   41382       2   41364   41370   41385       2
   41364   41373   41388       2   41364   41373   41391       2   41559   41568
   41562       2   41553   41562   41568       2   41550   41541   41553       2
   41550   41559   41568       2   41544   41550   41559       2   41541   41550
   41544       2   41541   41550   41559       2   41541   41553   41562       2
   41535   41544   41550       2   41532   41517   41535       2   41532   41541
   41550       2   41532   41541   41553       2   41520   41532   41541       2
   41517   41532   41520       2   41517   41532   41541       2   41517   41535
   41544       2   41511   41496   41517       2   41499   41520   41532       2
   41496   41481   41499       2   41496   41517   41532       2   41496   41517
   41535       2   41493   41511   41496       2   41490   41478   41493       2
   41484   41502   41490       2   41481   41496   41511       2   41481   41496
   41517       2   41481   41499   41520       2   41478   41472   41481       2
   41478   41490   41502       2   41478   41493   41511       2   41475   41472
   41478       2   41475   41472   41481       2   41475   41484   41502       2
   41472   41475   41484       2   41472   41478   41490       2   41472   41478
   41493       2   41472   41481   41496       2   41472   41481   41499       2
   41667   41676   41670       2   41661   41670   41676       2   41658   41649
   41661       2   41658   41667   41676       2   41652   41658   41667       2
   41649   41658   41652       2   41649   41658   41667       2   41649   41661
   41670       2   41643   41652   41658       2   41640   41625   41643       2
   41640   41649   41658       2   41640   41649   41661       2   41628   41640
   41649       2   41625   41640   41628       2   41625   41640   41649       2
   41625   41643   41652       2   41619   41604   41625       2   41607   41628
   41640       2   41604   41589   41607       2   41604   41625   41640       2
   41604   41625   41643       2   41601   41619   41604       2   41598   41586
   41601       2   41592   41610   41598       2   41589   41604   41619       2
   41589   41604   41625       2   41589   41607   41628       2   41586   41580
   41589       2   41586   41598   41610       2   41586   41601   41619       2
   41583   41580   41586       2   41583   41580   41589       2   41583   41592
   41610       2   41580   41583   41592       2   41580   41586   41598       2
   41580   41586   41601       2   41580   41589   41604       2   41580   41589
   41607       2   41775   41784   41778       2   41769   41778   41784       2
   41766   41757   41769       2   41766   41775   41784       2   41760   41766
   41775       2   41757   41766   41760       2   41757   41766   41775       2
   41757   41769   41778       2   41751   41760   41766       2   41748   41733
   41751       2   41748   41757   41766       2   41748   41757   41769       2
   41736   41748   41757       2   41733   41748   41736       2   41733   41748
   41757       2   41733   41751   41760       2   41727   41712   41733       2
   41715   41736   41748       2   41712   41697   41715       2   41712   41733
   41748       2   41712   41733   41751       2   41709   41727   41712       2
   41706   41694   41709       2   41700   41718   41706       2   41697   41712
   41727       2   41697   41712   41733       2   41697   41715   41736       2
   41694   41688   41697       2   41694   41706   41718       2   41694   41709
   41727       2   41691   41688   41694       2   41691   41688   41697       2
   41691   41700   41718       2   41688   41691   41700       2   41688   41694
   41706       2   41688   41694   41709       2   41688   41697   41712       2
   41688   41697   41715       2   41883   41892   41886       2   41877   41886
   41892       2   41874   41865   41877       2   41874   41883   41892       2
   41868   41874   41883       2   41865   41874   41868       2   41865   41874
   41883       2   41865   41877   41886       2   41859   41868   41874       2
   41856   41841   41859       2   41856   41865   41874       2   41856   41865
   41877       2   41844   41856   41865       2   41841   41856   41844       2
   41841   41856   41865       2   41841   41859   41868       2   41835   41820
   41841       2   41823   41844   41856       2   41820   41805   41823       2
   41820   41841   41856       2   41820   41841   41859       2   41817   41835
   41820       2   41814   41802   41817       2   41808   41826   41814       2
   41805   41820   41835       2   41805   41820   41841       2   41805   41823
   41844       2   41802   41796   41805       2   41802   41814   41826       2
   41802   41817   41835       2   41799   41796   41802       2   41799   41796
   41805       2   41799   41808   41826       2   41796   41799   41808       2
   41796   41802   41814       2   41796   41802   41817       2   41796   41805
   41820       2   41796   41805   41823       2   41991   42000   41994       2
   41985   41994   42000       2   41982   41973   41985       2   41982   41991
   42000       2   41976   41982   41991       2   41973   41982   41976       2
   41973   41982   41991       2   41973   41985   41994       2   41967   41976
   41982       2   41964   41949   41967       2   41964   41973   41982       2
   41964   41973   41985       2   41952   41964   41973       2   41949   41964
   41952       2   41949   41964   41973       2   41949   41967   41976       2
   41943   41928   41949       2   41931   41952   41964       2   41928   41913
   41931       2   41928   41949   41964       2   41928   41949   41967       2
   41925   41943   41928       2   41922   41910   41925       2   41916   41934
   41922       2   41913   41928   41943       2   41913   41928   41949       2
   41913   41931   41952       2   41910   41904   41913       2   41910   41922
   41934       2   41910   41925   41943       2   41907   41904   41910       2
   41907   41904   41913       2   41907   41916   41934       2   41904   41907
   41916       2   41904   41910   41922       2   41904   41910   41925       2
   41904   41913   41928       2   41904   41913   41931       2   42099   42108
   42102       2   42093   42102   42108       2   42090   42081   42093       2
   42090   42099   42108       2   42084   42090   42099       2   42081   42090
   42084       2   42081   42090   42099       2   42081   42093   42102       2
   42075   42084   42090       2   42072   42057   42075       2   42072   42081
   42090       2   42072   42081   42093       2   42060   42072   42081       2
   42057   42072   42060       2   42057   42072   42081       2   42057   42075
   42084       2   42051   42036   42057       2   42039   42060   42072       2
   42036   42021   42039       2   42036   42057   42072       2   42036   42057
   42075       2   42033   42051   42036       2   42030   42018   42033       2
   42024   42042   42030       2   42021   42036   42051       2   42021   42036
   42057       2   42021   42039   42060       2   42018   42012   42021       2
   42018   42030   42042       2   42018   42033   42051       2   42015   42012
   42018       2   42015   42012   42021       2   42015   42024   42042       2
   42012   42015   42024       2   42012   42018   42030       2   42012   42018
   42033       2   42012   42021   42036       2   42012   42021   42039       2
   42207   42216   42210       2   42201   42210   42216       2   42198   42189
   42201       2   42198   42207   42216       2   42192   42198   42207       2
   42189   42198   42192       2   42189   42198   42207       2   42189   42201
   42210       2   42183   42192   42198       2   42180   42165   42183       2
   42180   42189   42198       2   42180   42189   42201       2   42168   42180
   42189       2   42165   42180   42168       2   42165   42180   42189       2
   42165   42183   42192       2   42159   42144   42165       2   42147   42168
   42180       2   42144   42129   42147       2   42144   42165   42180       2
   42144   42165   42183       2   42141   42159   42144       2   42138   42126
   42141       2   42132   42150   42138       2   42129   42144   42159       2
   42129   42144   42165       2   42129   42147   42168       2   42126   42120
   42129       2   42126   42138   42150       2   42126   42141   42159       2
   42123   42120   42126       2   42123   42120   42129       2   42123   42132
   42150       2   42120   42123   42132       2   42120   42126   42138       2
   42120   42126   42141       2   42120   42129   42144       2   42120   42129
   42147       2   42315   42324   42318       2   42309   42318   42324       2
   42306   42297   42309       2   42306   42315   42324       2   42300   42306
   42315       2   42297   42306   42300       2   42297   42306   42315       2
   42297   42309   42318       2   42291   42300   42306       2   42288   42273
   42291       2   42288   42297   42306       2   42288   42297   42309       2
   42276   42288   42297       2   42273   42288   42276       2   42273   42288
   42297       2   42273   42291   42300       2   42267   42252   42273       2
   42255   42276   42288       2   42252   42237   42255       2   42252   42273
   42288       2   42252   42273   42291       2   42249   42267   42252       2
   42246   42234   42249       2   42240   42258   42246       2   42237   42252
   42267       2   42237   42252   42273       2   42237   42255   42276       2
   42234   42228   42237       2   42234   42246   42258       2   42234   42249
   42267       2   42231   42228   42234       2   42231   42228   42237       2
   42231   42240   42258       2   42228   42231   42240       2   42228   42234
   42246       2   42228   42234   42249       2   42228   42237   42252       2
   42228   42237   42255       2   42423   42432   42426       2   42417   42426
   42432       2   42414   42405   42417       2   42414   42423   42432       2
   42408   42414   42423       2   42405   42414   42408       2   42405   42414
   42423       2   42405   42417   42426       2   42399   42408   42414       2
   42396   42381   42399       2   42396   42405   42414       2   42396   42405
   42417       2   42384   42396   42405       2   42381   42396   42384       2
   42381   42396   42405       2   42381   42399   42408       2   42375   42360
   42381       2   42363   42384   42396       2   42360   42345   42363       2
   42360   42381   42396       2   42360   42381   42399       2   42357   42375
   42360       2   42354   42342   42357       2   42348   42366   42354       2
   42345   42360   42375       2   42345   42360   42381       2   42345   42363
   42384       2   42342   42336   42345       2   42342   42354   42366       2
   42342   42357   42375       2   42339   42336   42342       2   42339   42336
   42345       2   42339   42348   42366       2   42336   42339   42348       2
   42336   42342   42354       2   42336   42342   42357       2   42336   42345
   42360       2   42336   42345   42363       2   42531   42540   42534       2
   42525   42534   42540       2   42522   42513   42525       2   42522   42531
   42540       2   42516   42522   42531       2   42513   42522   42516       2
   42513   42522   42531       2   42513   42525   42534       2   42507   42516
   42522       2   42504   42489   42507       2   42504   42513   42522       2
   42504   42513   42525       2   42492   42504   42513       2   42489   42504
   42492       2   42489   42504   42513       2   42489   42507   42516       2
   42483   42468   42489       2   42471   42492   42504       2   42468   42453
   42471       2   42468   42489   42504       2   42468   42489   42507       2
   42465   42483   42468       2   42462   42450   42465       2   42456   42474
   42462       2   42453   42468   42483       2   42453   42468   42489       2
   42453   42471   42492       2   42450   42444   42453       2   42450   42462
   42474       2   42450   42465   42483       2   42447   42444   42450       2
   42447   42444   42453       2   42447   42456   42474       2   42444   42447
   42456       2   42444   42450   42462       2   42444   42450   42465       2
   42444   42453   42468       2   42444   42453   42471       2   42639   42648
   42642       2   42633   42642   42648       2   42630   42621   42633       2
   42630   42639   42648       2   42624   42630   42639       2   42621   42630
   42624       2   42621   42630   42639       2   42621   42633   42642       2
   42615   42624   42630       2   42612   42597   42615       2   42612   42621
   42630       2   42612   42621   42633       2   42600   42612   42621       2
   42597   42612   42600       2   42597   42612   42621       2   42597   42615
   42624       2   42591   42576   42597       2   42579   42600   42612       2
   42576   42561   42579       2   42576   42597   42612       2   42576   42597
   42615       2   42573   42591   42576       2   42570   42558   42573       2
   42564   42582   42570       2   42561   42576   42591       2   42561   42576
   42597       2   42561   42579   42600       2   42558   42552   42561       2
   42558   42570   42582       2   42558   42573   42591       2   42555   42552
   42558       2   42555   42552   42561       2   42555   42564   42582       2
   42552   42555   42564       2   42552   42558   42570       2   42552   42558
   42573       2   42552   42561   42576       2   42552   42561   42579       2
   42747   42756   42750       2   42741   42750   42756       2   42738   42729
   42741       2   42738   42747   42756       2   42732   42738   42747       2
   42729   42738   42732       2   42729   42738   42747       2   42729   42741
   42750       2   42723   42732   42738       2   42720   42705   42723       2
   42720   42729   42738       2   42720   42729   42741       2   42708   42720
   42729       2   42705   42720   42708       2   42705   42720   42729       2
   42705   42723   42732       2   42699   42684   42705       2   42687   42708
   42720       2   42684   42669   42687       2   42684   42705   42720       2
   42684   42705   42723       2   42681   42699   42684       2   42678   42666
   42681       2   42672   42690   42678       2   42669   42684   42699       2
   42669   42684   42705       2   42669   42687   42708       2   42666   42660
   42669       2   42666   42678   42690       2   42666   42681   42699       2
   42663   42660   42666       2   42663   42660   42669       2   42663   42672
   42690       2   42660   42663   42672       2   42660   42666   42678       2
   42660   42666   42681       2   42660   42669   42684       2   42660   42669
   42687       2   42855   42864   42858       2   42849   42858   42864       2
   42846   42837   42849       2   42846   42855   42864       2   42840   42846
   42855       2   42837   42846   42840       2   42837   42846   42855       2
   42837   42849   42858       2   42831   42840   42846       2   42828   42813
   42831       2   42828   42837   42846       2   42828   42837   42849       2
   42816   42828   42837       2   42813   42828   42816       2   42813   42828
   42837       2   42813   42831   42840       2   42807   42792   42813       2
   42795   42816   42828       2   42792   42777   42795       2   42792   42813
   42828       2   42792   42813   42831       2   42789   42807   42792       2
   42786   42774   42789       2   42780   42798   42786       2   42777   42792
   42807       2   42777   42792   42813       2   42777   42795   42816       2
   42774   42768   42777       2   42774   42786   42798       2   42774   42789
   42807       2   42771   42768   42774       2   42771   42768   42777       2
   42771   42780   42798       2   42768   42771   42780       2   42768   42774
   42786       2   42768   42774   42789       2   42768   42777   42792       2
   42768   42777   42795       2   42963   42972   42966       2   42957   42966
   42972       2   42954   42945   42957       2   42954   42963   42972       2
   42948   42954   42963       2   42945   42954   42948       2   42945   42954
   42963       2   42945   42957   42966       2   42939   42948   42954       2
   42936   42921   42939       2   42936   42945   42954       2   42936   42945
   42957       2   42924   42936   42945       2   42921   42936   42924       2
   42921   42936   42945       2   42921   42939   42948       2   42915   42900
   42921       2   42903   42924   42936       2   42900   42885   42903       2
   42900   42921   42936       2   42900   42921   42939       2   42897   42915
   42900       2   42894   42882   42897       2   42888   42906   42894       2
   42885   42900   42915       2   42885   42900   42921       2   42885   42903
   42924       2   42882   42876   42885       2   42882   42894   42906       2
   42882   42897   42915       2   42879   42876   42882       2   42879   42876
   42885       2   42879   42888   42906       2   42876   42879   42888       2
   42876   42882   42894       2   42876   42882   42897       2   42876   42885
   42900       2   42876   42885   42903       2   43071   43080   43074       2
   43065   43074   43080       2   43062   43053   43065       2   43062   43071
   43080       2   43056   43062   43071       2   43053   43062   43056       2
   43053   43062   43071       2   43053   43065   43074       2   43047   43056
   43062       2   43044   43029   43047       2   43044   43053   43062       2
   43044   43053   43065       2   43032   43044   43053       2   43029   43044
   43032       2   43029   43044   43053       2   43029   43047   43056       2
   43023   43008   43029       2   43011   43032   43044       2   43008   42993
   43011       2   43008   43029   43044       2   43008   43029   43047       2
   43005   43023   43008       2   43002   42990   43005       2   42996   43014
   43002       2   42993   43008   43023       2   42993   43008   43029       2
   42993   43011   43032       2   42990   42984   42993       2   42990   43002
   43014       2   42990   43005   43023       2   42987   42984   42990       2
   42987   42984   42993       2   42987   42996   43014       2   42984   42987
   42996       2   42984   42990   43002       2   42984   42990   43005       2
   42984   42993   43008       2   42984   42993   43011       2   43179   43188
   43182       2   43173   43182   43188       2   43170   43161   43173       2
   43170   43179   43188       2   43164   43170   43179       2   43161   43170
   43164       2   43161   43170   43179       2   43161   43173   43182       2
   43155   43164   43170       2   43152   43137   43155       2   43152   43161
   43170       2   43152   43161   43173       2   43140   43152   43161       2
   43137   43152   43140       2   43137   43152   43161       2   43137   43155
   43164       2   43131   43116   43137       2   43119   43140   43152       2
   43116   43101   43119       2   43116   43137   43152       2   43116   43137
   43155       2   43113   43131   43116       2   43110   43098   43113       2
   43104   43122   43110       2   43101   43116   43131       2   43101   43116
   43137       2   43101   43119   43140       2   43098   43092   43101       2
   43098   43110   43122       2   43098   43113   43131       2   43095   43092
   43098       2   43095   43092   43101       2   43095   43104   43122       2
   43092   43095   43104       2   43092   43098   43110       2   43092   43098
   43113       2   43092   43101   43116       2   43092   43101   43119       2
   43287   43296   43290       2   43281   43290   43296       2   43278   43269
   43281       2   43278   43287   43296       2   43272   43278   43287       2
   43269   43278   43272       2   43269   43278   43287       2   43269   43281
   43290       2   43263   43272   43278       2   43260   43245   43263       2
   43260   43269   43278       2   43260   43269   43281       2   43248   43260
   43269       2   43245   43260   43248       2   43245   43260   43269       2
   43245   43263   43272       2   43239   43224   43245       2   43227   43248
   43260       2   43224   43209   43227       2   43224   43245   43260       2
   43224   43245   43263       2   43221   43239   43224       2   43218   43206
   43221       2   43212   43230   43218       2   43209   43224   43239       2
   43209   43224   43245       2   43209   43227   43248       2   43206   43200
   43209       2   43206   43218   43230       2   43206   43221   43239       2
   43203   43200   43206       2   43203   43200   43209       2   43203   43212
   43230       2   43200   43203   43212       2   43200   43206   43218       2
   43200   43206   43221       2   43200   43209   43224       2   43200   43209
   43227       2   43395   43404   43398       2   43389   43398   43404       2
   43386   43377   43389       2   43386   43395   43404       2   43380   43386
   43395       2   43377   43386   43380       2   43377   43386   43395       2
   43377   43389   43398       2   43371   43380   43386       2   43368   43353
   43371       2   43368   43377   43386       2   43368   43377   43389       2
   43356   43368   43377       2   43353   43368   43356       2   43353   43368
   43377       2   43353   43371   43380       2   43347   43332   43353       2
   43335   43356   43368       2   43332   43317   43335       2   43332   43353
   43368       2   43332   43353   43371       2   43329   43347   43332       2
   43326   43314   43329       2   43320   43338   43326       2   43317   43332
   43347       2   43317   43332   43353       2   43317   43335   43356       2
   43314   43308   43317       2   43314   43326   43338       2   43314   43329
   43347       2   43311   43308   43314       2   43311   43308   43317       2
   43311   43320   43338       2   43308   43311   43320       2   43308   43314
   43326       2   43308   43314   43329       2   43308   43317   43332       2
   43308   43317   43335       2   43503   43512   43506       2   43497   43506
   43512       2   43494   43485   43497       2   43494   43503   43512       2
   43488   43494   43503       2   43485   43494   43488       2   43485   43494
   43503       2   43485   43497   43506       2   43479   43488   43494       2
   43476   43461   43479       2   43476   43485   43494       2   43476   43485
   43497       2   43464   43476   43485       2   43461   43476   43464       2
   43461   43476   43485       2   43461   43479   43488       2   43455   43440
   43461       2   43443   43464   43476       2   43440   43425   43443       2
   43440   43461   43476       2   43440   43461   43479       2   43437   43455
   43440       2   43434   43422   43437       2   43428   43446   43434       2
   43425   43440   43455       2   43425   43440   43461       2   43425   43443
   43464       2   43422   43416   43425       2   43422   43434   43446       2
   43422   43437   43455       2   43419   43416   43422       2   43419   43416
   43425       2   43419   43428   43446       2   43416   43419   43428       2
   43416   43422   43434       2   43416   43422   43437       2   43416   43425
   43440       2   43416   43425   43443       2   43611   43620   43614       2
   43605   43614   43620       2   43602   43593   43605       2   43602   43611
   43620       2   43596   43602   43611       2   43593   43602   43596       2
   43593   43602   43611       2   43593   43605   43614       2   43587   43596
   43602       2   43584   43569   43587       2   43584   43593   43602       2
   43584   43593   43605       2   43572   43584   43593       2   43569   43584
   43572       2   43569   43584   43593       2   43569   43587   43596       2
   43563   43548   43569       2   43551   43572   43584       2   43548   43533
   43551       2   43548   43569   43584       2   43548   43569   43587       2
   43545   43563   43548       2   43542   43530   43545       2   43536   43554
   43542       2   43533   43548   43563       2   43533   43548   43569       2
   43533   43551   43572       2   43530   43524   43533       2   43530   43542
   43554       2   43530   43545   43563       2   43527   43524   43530       2
   43527   43524   43533       2   43527   43536   43554       2   43524   43527
   43536       2   43524   43530   43542       2   43524   43530   43545       2
   43524   43533   43548       2   43524   43533   43551       2   43719   43728
   43722       2   43713   43722   43728       2   43710   43701   43713       2
   43710   43719   43728       2   43704   43710   43719       2   43701   43710
   43704       2   43701   43710   43719       2   43701   43713   43722       2
   43695   43704   43710       2   43692   43677   43695       2   43692   43701
   43710       2   43692   43701   43713       2   43680   43692   43701       2
   43677   43692   43680       2   43677   43692   43701       2   43677   43695
   43704       2   43671   43656   43677       2   43659   43680   43692       2
   43656   43641   43659       2   43656   43677   43692       2   43656   43677
   43695       2   43653   43671   43656       2   43650   43638   43653       2
   43644   43662   43650       2   43641   43656   43671       2   43641   43656
   43677       2   43641   43659   43680       2   43638   43632   43641       2
   43638   43650   43662       2   43638   43653   43671       2   43635   43632
   43638       2   43635   43632   43641       2   43635   43644   43662       2
   43632   43635   43644       2   43632   43638   43650       2   43632   43638
   43653       2   43632   43641   43656       2   43632   43641   43659       2
   43827   43836   43830       2   43821   43830   43836       2   43818   43809
   43821       2   43818   43827   43836       2   43812   43818   43827       2
   43809   43818   43812       2   43809   43818   43827       2   43809   43821
   43830       2   43803   43812   43818       2   43800   43785   43803       2
   43800   43809   43818       2   43800   43809   43821       2   43788   43800
   43809       2   43785   43800   43788       2   43785   43800   43809       2
   43785   43803   43812       2   43779   43764   43785       2   43767   43788
   43800       2   43764   43749   43767       2   43764   43785   43800       2
   43764   43785   43803       2   43761   43779   43764       2   43758   43746
   43761       2   43752   43770   43758       2   43749   43764   43779       2
   43749   43764   43785       2   43749   43767   43788       2   43746   43740
   43749       2   43746   43758   43770       2   43746   43761   43779       2
   43743   43740   43746       2   43743   43740   43749       2   43743   43752
   43770       2   43740   43743   43752       2   43740   43746   43758       2
   43740   43746   43761       2   43740   43749   43764       2   43740   43749
   43767       2   43935   43944   43938       2   43929   43938   43944       2
   43926   43917   43929       2   43926   43935   43944       2   43920   43926
   43935       2   43917   43926   43920       2   43917   43926   43935       2
   43917   43929   43938       2   43911   43920   43926       2   43908   43893
   43911       2   43908   43917   43926       2   43908   43917   43929       2
   43896   43908   43917       2   43893   43908   43896       2   43893   43908
   43917       2   43893   43911   43920       2   43887   43872   43893       2
   43875   43896   43908       2   43872   43857   43875       2   43872   43893
   43908       2   43872   43893   43911       2   43869   43887   43872       2
   43866   43854   43869       2   43860   43878   43866       2   43857   43872
   43887       2   43857   43872   43893       2   43857   43875   43896       2
   43854   43848   43857       2   43854   43866   43878       2   43854   43869
   43887       2   43851   43848   43854       2   43851   43848   43857       2
   43851   43860   43878       2   43848   43851   43860       2   43848   43854
   43866       2   43848   43854   43869       2   43848   43857   43872       2
   43848   43857   43875       2   44043   44052   44046       2   44037   44046
   44052       2   44034   44025   44037       2   44034   44043   44052       2
   44028   44034   44043       2   44025   44034   44028       2   44025   44034
   44043       2   44025   44037   44046       2   44019   44028   44034       2
   44016   44001   44019       2   44016   44025   44034       2   44016   44025
   44037       2   44004   44016   44025       2   44001   44016   44004       2
   44001   44016   44025       2   44001   44019   44028       2   43995   43980
   44001       2   43983   44004   44016       2   43980   43965   43983       2
   43980   44001   44016       2   43980   44001   44019       2   43977   43995
   43980       2   43974   43962   43977       2   43968   43986   43974       2
   43965   43980   43995       2   43965   43980   44001       2   43965   43983
   44004       2   43962   43956   43965       2   43962   43974   43986       2
   43962   43977   43995       2   43959   43956   43962       2   43959   43956
   43965       2   43959   43968   43986       2   43956   43959   43968       2
   43956   43962   43974       2   43956   43962   43977       2   43956   43965
   43980       2   43956   43965   43983       2   44151   44160   44154       2
   44145   44154   44160       2   44142   44133   44145       2   44142   44151
   44160       2   44136   44142   44151       2   44133   44142   44136       2
   44133   44142   44151       2   44133   44145   44154       2   44127   44136
   44142       2   44124   44109   44127       2   44124   44133   44142       2
   44124   44133   44145       2   44112   44124   44133       2   44109   44124
   44112       2   44109   44124   44133       2   44109   44127   44136       2
   44103   44088   44109       2   44091   44112   44124       2   44088   44073
   44091       2   44088   44109   44124       2   44088   44109   44127       2
   44085   44103   44088       2   44082   44070   44085       2   44076   44094
   44082       2   44073   44088   44103       2   44073   44088   44109       2
   44073   44091   44112       2   44070   44064   44073       2   44070   44082
   44094       2   44070   44085   44103       2   44067   44064   44070       2
   44067   44064   44073       2   44067   44076   44094       2   44064   44067
   44076       2   44064   44070   44082       2   44064   44070   44085       2
   44064   44073   44088       2   44064   44073   44091       2   44259   44268
   44262       2   44253   44262   44268       2   44250   44241   44253       2
   44250   44259   44268       2   44244   44250   44259       2   44241   44250
   44244       2   44241   44250   44259       2   44241   44253   44262       2
   44235   44244   44250       2   44232   44217   44235       2   44232   44241
   44250       2   44232   44241   44253       2   44220   44232   44241       2
   44217   44232   44220       2   44217   44232   44241       2   44217   44235
   44244       2   44211   44196   44217       2   44199   44220   44232       2
   44196   44181   44199       2   44196   44217   44232       2   44196   44217
   44235       2   44193   44211   44196       2   44190   44178   44193       2
   44184   44202   44190       2   44181   44196   44211       2   44181   44196
   44217       2   44181   44199   44220       2   44178   44172   44181       2
   44178   44190   44202       2   44178   44193   44211       2   44175   44172
   44178       2   44175   44172   44181       2   44175   44184   44202       2
   44172   44175   44184       2   44172   44178   44190       2   44172   44178
   44193       2   44172   44181   44196       2   44172   44181   44199       2
   44367   44376   44370       2   44361   44370   44376       2   44358   44349
   44361       2   44358   44367   44376       2   44352   44358   44367       2
   44349   44358   44352       2   44349   44358   44367       2   44349   44361
   44370       2   44343   44352   44358       2   44340   44325   44343       2
   44340   44349   44358       2   44340   44349   44361       2   44328   44340
   44349       2   44325   44340   44328       2   44325   44340   44349       2
   44325   44343   44352       2   44319   44304   44325       2   44307   44328
   44340       2   44304   44289   44307       2   44304   44325   44340       2
   44304   44325   44343       2   44301   44319   44304       2   44298   44286
   44301       2   44292   44310   44298       2   44289   44304   44319       2
   44289   44304   44325       2   44289   44307   44328       2   44286   44280
   44289       2   44286   44298   44310       2   44286   44301   44319       2
   44283   44280   44286       2   44283   44280   44289       2   44283   44292
   44310       2   44280   44283   44292       2   44280   44286   44298       2
   44280   44286   44301       2   44280   44289   44304       2   44280   44289
   44307       2   44475   44484   44478       2   44469   44478   44484       2
   44466   44457   44469       2   44466   44475   44484       2   44460   44466
   44475       2   44457   44466   44460       2   44457   44466   44475       2
   44457   44469   44478       2   44451   44460   44466       2   44448   44433
   44451       2   44448   44457   44466       2   44448   44457   44469       2
   44436   44448   44457       2   44433   44448   44436       2   44433   44448
   44457       2   44433   44451   44460       2   44427   44412   44433       2
   44415   44436   44448       2   44412   44397   44415       2   44412   44433
   44448       2   44412   44433   44451       2   44409   44427   44412       2
   44406   44394   44409       2   44400   44418   44406       2   44397   44412
   44427       2   44397   44412   44433       2   44397   44415   44436       2
   44394   44388   44397       2   44394   44406   44418       2   44394   44409
   44427       2   44391   44388   44394       2   44391   44388   44397       2
   44391   44400   44418       2   44388   44391   44400       2   44388   44394
   44406       2   44388   44394   44409       2   44388   44397   44412       2
   44388   44397   44415       2   44583   44592   44586       2   44577   44586
   44592       2   44574   44565   44577       2   44574   44583   44592       2
   44568   44574   44583       2   44565   44574   44568       2   44565   44574
   44583       2   44565   44577   44586       2   44559   44568   44574       2
   44556   44541   44559       2   44556   44565   44574       2   44556   44565
   44577       2   44544   44556   44565       2   44541   44556   44544       2
   44541   44556   44565       2   44541   44559   44568       2   44535   44520
   44541       2   44523   44544   44556       2   44520   44505   44523       2
   44520   44541   44556       2   44520   44541   44559       2   44517   44535
   44520       2   44514   44502   44517       2   44508   44526   44514       2
   44505   44520   44535       2   44505   44520   44541       2   44505   44523
   44544       2   44502   44496   44505       2   44502   44514   44526       2
   44502   44517   44535       2   44499   44496   44502       2   44499   44496
   44505       2   44499   44508   44526       2   44496   44499   44508       2
   44496   44502   44514       2   44496   44502   44517       2   44496   44505
   44520       2   44496   44505   44523       2   44691   44700   44694       2
   44685   44694   44700       2   44682   44673   44685       2   44682   44691
   44700       2   44676   44682   44691       2   44673   44682   44676       2
   44673   44682   44691       2   44673   44685   44694       2   44667   44676
   44682       2   44664   44649   44667       2   44664   44673   44682       2
   44664   44673   44685       2   44652   44664   44673       2   44649   44664
   44652       2   44649   44664   44673       2   44649   44667   44676       2
   44643   44628   44649       2   44631   44652   44664       2   44628   44613
   44631       2   44628   44649   44664       2   44628   44649   44667       2
   44625   44643   44628       2   44622   44610   44625       2   44616   44634
   44622       2   44613   44628   44643       2   44613   44628   44649       2
   44613   44631   44652       2   44610   44604   44613       2   44610   44622
   44634       2   44610   44625   44643       2   44607   44604   44610       2
   44607   44604   44613       2   44607   44616   44634       2   44604   44607
   44616       2   44604   44610   44622       2   44604   44610   44625       2
   44604   44613   44628       2   44604   44613   44631       2   44799   44808
   44802       2   44793   44802   44808       2   44790   44781   44793       2
   44790   44799   44808       2   44784   44790   44799       2   44781   44790
   44784       2   44781   44790   44799       2   44781   44793   44802       2
   44775   44784   44790       2   44772   44757   44775       2   44772   44781
   44790       2   44772   44781   44793       2   44760   44772   44781       2
   44757   44772   44760       2   44757   44772   44781       2   44757   44775
   44784       2   44751   44736   44757       2   44739   44760   44772       2
   44736   44721   44739       2   44736   44757   44772       2   44736   44757
   44775       2   44733   44751   44736       2   44730   44718   44733       2
   44724   44742   44730       2   44721   44736   44751       2   44721   44736
   44757       2   44721   44739   44760       2   44718   44712   44721       2
   44718   44730   44742       2   44718   44733   44751       2   44715   44712
   44718       2   44715   44712   44721       2   44715   44724   44742       2
   44712   44715   44724       2   44712   44718   44730       2   44712   44718
   44733       2   44712   44721   44736       2   44712   44721   44739       2
   44907   44916   44910       2   44901   44910   44916       2   44898   44889
   44901       2   44898   44907   44916       2   44892   44898   44907       2
   44889   44898   44892       2   44889   44898   44907       2   44889   44901
   44910       2   44883   44892   44898       2   44880   44865   44883       2
   44880   44889   44898       2   44880   44889   44901       2   44868   44880
   44889       2   44865   44880   44868       2   44865   44880   44889       2
   44865   44883   44892       2   44859   44844   44865       2   44847   44868
   44880       2   44844   44829   44847       2   44844   44865   44880       2
   44844   44865   44883       2   44841   44859   44844       2   44838   44826
   44841       2   44832   44850   44838       2   44829   44844   44859       2
   44829   44844   44865       2   44829   44847   44868       2   44826   44820
   44829       2   44826   44838   44850       2   44826   44841   44859       2
   44823   44820   44826       2   44823   44820   44829       2   44823   44832
   44850       2   44820   44823   44832       2   44820   44826   44838       2
   44820   44826   44841       2   44820   44829   44844       2   44820   44829
   44847       2   45015   45024   45018       2   45009   45018   45024       2
   45006   44997   45009       2   45006   45015   45024       2   45000   45006
   45015       2   44997   45006   45000       2   44997   45006   45015       2
   44997   45009   45018       2   44991   45000   45006       2   44988   44973
   44991       2   44988   44997   45006       2   44988   44997   45009       2
   44976   44988   44997       2   44973   44988   44976       2   44973   44988
   44997       2   44973   44991   45000       2   44967   44952   44973       2
   44955   44976   44988       2   44952   44937   44955       2   44952   44973
   44988       2   44952   44973   44991       2   44949   44967   44952       2
   44946   44934   44949       2   44940   44958   44946       2   44937   44952
   44967       2   44937   44952   44973       2   44937   44955   44976       2
   44934   44928   44937       2   44934   44946   44958       2   44934   44949
   44967       2   44931   44928   44934       2   44931   44928   44937       2
   44931   44940   44958       2   44928   44931   44940       2   44928   44934
   44946       2   44928   44934   44949       2   44928   44937   44952       2
   44928   44937   44955       2   45123   45132   45126       2   45117   45126
   45132       2   45114   45105   45117       2   45114   45123   45132       2
   45108   45114   45123       2   45105   45114   45108       2   45105   45114
   45123       2   45105   45117   45126       2   45099   45108   45114       2
   45096   45081   45099       2   45096   45105   45114       2   45096   45105
   45117       2   45084   45096   45105       2   45081   45096   45084       2
   45081   45096   45105       2   45081   45099   45108       2   45075   45060
   45081       2   45063   45084   45096       2   45060   45045   45063       2
   45060   45081   45096       2   45060   45081   45099       2   45057   45075
   45060       2   45054   45042   45057       2   45048   45066   45054       2
   45045   45060   45075       2   45045   45060   45081       2   45045   45063
   45084       2   45042   45036   45045       2   45042   45054   45066       2
   45042   45057   45075       2   45039   45036   45042       2   45039   45036
   45045       2   45039   45048   45066       2   45036   45039   45048       2
   45036   45042   45054       2   45036   45042   45057       2   45036   45045
   45060       2   45036   45045   45063       2   45231   45240   45234       2
   45225   45234   45240       2   45222   45213   45225       2   45222   45231
   45240       2   45216   45222   45231       2   45213   45222   45216       2
   45213   45222   45231       2   45213   45225   45234       2   45207   45216
   45222       2   45204   45189   45207       2   45204   45213   45222       2
   45204   45213   45225       2   45192   45204   45213       2   45189   45204
   45192       2   45189   45204   45213       2   45189   45207   45216       2
   45183   45168   45189       2   45171   45192   45204       2   45168   45153
   45171       2   45168   45189   45204       2   45168   45189   45207       2
   45165   45183   45168       2   45162   45150   45165       2   45156   45174
   45162       2   45153   45168   45183       2   45153   45168   45189       2
   45153   45171   45192       2   45150   45144   45153       2   45150   45162
   45174       2   45150   45165   45183       2   45147   45144   45150       2
   45147   45144   45153       2   45147   45156   45174       2   45144   45147
   45156       2   45144   45150   45162       2   45144   45150   45165       2
   45144   45153   45168       2   45144   45153   45171       2   45339   45348
   45342       2   45333   45342   45348       2   45330   45321   45333       2
   45330   45339   45348       2   45324   45330   45339       2   45321   45330
   45324       2   45321   45330   45339       2   45321   45333   45342       2
   45315   45324   45330       2   45312   45297   45315       2   45312   45321
   45330       2   45312   45321   45333       2   45300   45312   45321       2
   45297   45312   45300       2   45297   45312   45321       2   45297   45315
   45324       2   45291   45276   45297       2   45279   45300   45312       2
   45276   45261   45279       2   45276   45297   45312       2   45276   45297
   45315       2   45273   45291   45276       2   45270   45258   45273       2
   45264   45282   45270       2   45261   45276   45291       2   45261   45276
   45297       2   45261   45279   45300       2   45258   45252   45261       2
   45258   45270   45282       2   45258   45273   45291       2   45255   45252
   45258       2   45255   45252   45261       2   45255   45264   45282       2
   45252   45255   45264       2   45252   45258   45270       2   45252   45258
   45273       2   45252   45261   45276       2   45252   45261   45279       2
   45447   45456   45450       2   45441   45450   45456       2   45438   45429
   45441       2   45438   45447   45456       2   45432   45438   45447       2
   45429   45438   45432       2   45429   45438   45447       2   45429   45441
   45450       2   45423   45432   45438       2   45420   45405   45423       2
   45420   45429   45438       2   45420   45429   45441       2   45408   45420
   45429       2   45405   45420   45408       2   45405   45420   45429       2
   45405   45423   45432       2   45399   45384   45405       2   45387   45408
   45420       2   45384   45369   45387       2   45384   45405   45420       2
   45384   45405   45423       2   45381   45399   45384       2   45378   45366
   45381       2   45372   45390   45378       2   45369   45384   45399       2
   45369   45384   45405       2   45369   45387   45408       2   45366   45360
   45369       2   45366   45378   45390       2   45366   45381   45399       2
   45363   45360   45366       2   45363   45360   45369       2   45363   45372
   45390       2   45360   45363   45372       2   45360   45366   45378       2
   45360   45366   45381       2   45360   45369   45384       2   45360   45369
   45387       2   45555   45564   45558       2   45549   45558   45564       2
   45546   45537   45549       2   45546   45555   45564       2   45540   45546
   45555       2   45537   45546   45540       2   45537   45546   45555       2
   45537   45549   45558       2   45531   45540   45546       2   45528   45513
   45531       2   45528   45537   45546       2   45528   45537   45549       2
   45516   45528   45537       2   45513   45528   45516       2   45513   45528
   45537       2   45513   45531   45540       2   45507   45492   45513       2
   45495   45516   45528       2   45492   45477   45495       2   45492   45513
   45528       2   45492   45513   45531       2   45489   45507   45492       2
   45486   45474   45489       2   45480   45498   45486       2   45477   45492
   45507       2   45477   45492   45513       2   45477   45495   45516       2
   45474   45468   45477       2   45474   45486   45498       2   45474   45489
   45507       2   45471   45468   45474       2   45471   45468   45477       2
   45471   45480   45498       2   45468   45471   45480       2   45468   45474
   45486       2   45468   45474   45489       2   45468   45477   45492       2
   45468   45477   45495       2   45663   45672   45666       2   45657   45666
   45672       2   45654   45645   45657       2   45654   45663   45672       2
   45648   45654   45663       2   45645   45654   45648       2   45645   45654
   45663       2   45645   45657   45666       2   45639   45648   45654       2
   45636   45621   45639       2   45636   45645   45654       2   45636   45645
   45657       2   45624   45636   45645       2   45621   45636   45624       2
   45621   45636   45645       2   45621   45639   45648       2   45615   45600
   45621       2   45603   45624   45636       2   45600   45585   45603       2
   45600   45621   45636       2   45600   45621   45639       2   45597   45615
   45600       2   45594   45582   45597       2   45588   45606   45594       2
   45585   45600   45615       2   45585   45600   45621       2   45585   45603
   45624       2   45582   45576   45585       2   45582   45594   45606       2
   45582   45597   45615       2   45579   45576   45582       2   45579   45576
   45585       2   45579   45588   45606       2   45576   45579   45588       2
   45576   45582   45594       2   45576   45582   45597       2   45576   45585
   45600       2   45576   45585   45603       2   45771   45780   45774       2
   45765   45774   45780       2   45762   45753   45765       2   45762   45771
   45780       2   45756   45762   45771       2   45753   45762   45756       2
   45753   45762   45771       2   45753   45765   45774       2   45747   45756
   45762       2   45744   45729   45747       2   45744   45753   45762       2
   45744   45753   45765       2   45732   45744   45753       2   45729   45744
   45732       2   45729   45744   45753       2   45729   45747   45756       2
   45723   45708   45729       2   45711   45732   45744       2   45708   45693
   45711       2   45708   45729   45744       2   45708   45729   45747       2
   45705   45723   45708       2   45702   45690   45705       2   45696   45714
   45702       2   45693   45708   45723       2   45693   45708   45729       2
   45693   45711   45732       2   45690   45684   45693       2   45690   45702
   45714       2   45690   45705   45723       2   45687   45684   45690       2
   45687   45684   45693       2   45687   45696   45714       2   45684   45687
   45696       2   45684   45690   45702       2   45684   45690   45705       2
   45684   45693   45708       2   45684   45693   45711       2   45879   45888
   45882       2   45873   45882   45888       2   45870   45861   45873       2
   45870   45879   45888       2   45864   45870   45879       2   45861   45870
   45864       2   45861   45870   45879       2   45861   45873   45882       2
   45855   45864   45870       2   45852   45837   45855       2   45852   45861
   45870       2   45852   45861   45873       2   45840   45852   45861       2
   45837   45852   45840       2   45837   45852   45861       2   45837   45855
   45864       2   45831   45816   45837       2   45819   45840   45852       2
   45816   45801   45819       2   45816   45837   45852       2   45816   45837
   45855       2   45813   45831   45816       2   45810   45798   45813       2
   45804   45822   45810       2   45801   45816   45831       2   45801   45816
   45837       2   45801   45819   45840       2   45798   45792   45801       2
   45798   45810   45822       2   45798   45813   45831       2   45795   45792
   45798       2   45795   45792   45801       2   45795   45804   45822       2
   45792   45795   45804       2   45792   45798   45810       2   45792   45798
   45813       2   45792   45801   45816       2   45792   45801   45819       2
   45987   45996   45990       2   45981   45990   45996       2   45978   45969
   45981       2   45978   45987   45996       2   45972   45978   45987       2
   45969   45978   45972       2   45969   45978   45987       2   45969   45981
   45990       2   45963   45972   45978       2   45960   45945   45963       2
   45960   45969   45978       2   45960   45969   45981       2   45948   45960
   45969       2   45945   45960   45948       2   45945   45960   45969       2
   45945   45963   45972       2   45939   45924   45945       2   45927   45948
   45960       2   45924   45909   45927       2   45924   45945   45960       2
   45924   45945   45963       2   45921   45939   45924       2   45918   45906
   45921       2   45912   45930   45918       2   45909   45924   45939       2
   45909   45924   45945       2   45909   45927   45948       2   45906   45900
   45909       2   45906   45918   45930       2   45906   45921   45939       2
   45903   45900   45906       2   45903   45900   45909       2   45903   45912
   45930       2   45900   45903   45912       2   45900   45906   45918       2
   45900   45906   45921       2   45900   45909   45924       2   45900   45909
   45927       2   46095   46104   46098       2   46089   46098   46104       2
   46086   46077   46089       2   46086   46095   46104       2   46080   46086
   46095       2   46077   46086   46080       2   46077   46086   46095       2
   46077   46089   46098       2   46071   46080   46086       2   46068   46053
   46071       2   46068   46077   46086       2   46068   46077   46089       2
   46056   46068   46077       2   46053   46068   46056       2   46053   46068
   46077       2   46053   46071   46080       2   46047   46032   46053       2
   46035   46056   46068       2   46032   46017   46035       2   46032   46053
   46068       2   46032   46053   46071       2   46029   46047   46032       2
   46026   46014   46029       2   46020   46038   46026       2   46017   46032
   46047       2   46017   46032   46053       2   46017   46035   46056       2
   46014   46008   46017       2   46014   46026   46038       2   46014   46029
   46047       2   46011   46008   46014       2   46011   46008   46017       2
   46011   46020   46038       2   46008   46011   46020       2   46008   46014
   46026       2   46008   46014   46029       2   46008   46017   46032       2
   46008   46017   46035       2   46203   46212   46206       2   46197   46206
   46212       2   46194   46185   46197       2   46194   46203   46212       2
   46188   46194   46203       2   46185   46194   46188       2   46185   46194
   46203       2   46185   46197   46206       2   46179   46188   46194       2
   46176   46161   46179       2   46176   46185   46194       2   46176   46185
   46197       2   46164   46176   46185       2   46161   46176   46164       2
   46161   46176   46185       2   46161   46179   46188       2   46155   46140
   46161       2   46143   46164   46176       2   46140   46125   46143       2
   46140   46161   46176       2   46140   46161   46179       2   46137   46155
   46140       2   46134   46122   46137       2   46128   46146   46134       2
   46125   46140   46155       2   46125   46140   46161       2   46125   46143
   46164       2   46122   46116   46125       2   46122   46134   46146       2
   46122   46137   46155       2   46119   46116   46122       2   46119   46116
   46125       2   46119   46128   46146       2   46116   46119   46128       2
   46116   46122   46134       2   46116   46122   46137       2   46116   46125
   46140       2   46116   46125   46143       2   46311   46320   46314       2
   46305   46314   46320       2   46302   46293   46305       2   46302   46311
   46320       2   46296   46302   46311       2   46293   46302   46296       2
   46293   46302   46311       2   46293   46305   46314       2   46287   46296
   46302       2   46284   46269   46287       2   46284   46293   46302       2
   46284   46293   46305       2   46272   46284   46293       2   46269   46284
   46272       2   46269   46284   46293       2   46269   46287   46296       2
   46263   46248   46269       2   46251   46272   46284       2   46248   46233
   46251       2   46248   46269   46284       2   46248   46269   46287       2
   46245   46263   46248       2   46242   46230   46245       2   46236   46254
   46242       2   46233   46248   46263       2   46233   46248   46269       2
   46233   46251   46272       2   46230   46224   46233       2   46230   46242
   46254       2   46230   46245   46263       2   46227   46224   46230       2
   46227   46224   46233       2   46227   46236   46254       2   46224   46227
   46236       2   46224   46230   46242       2   46224   46230   46245       2
   46224   46233   46248       2   46224   46233   46251       2   46419   46428
   46422       2   46413   46422   46428       2   46410   46401   46413       2
   46410   46419   46428       2   46404   46410   46419       2   46401   46410
   46404       2   46401   46410   46419       2   46401   46413   46422       2
   46395   46404   46410       2   46392   46377   46395       2   46392   46401
   46410       2   46392   46401   46413       2   46380   46392   46401       2
   46377   46392   46380       2   46377   46392   46401       2   46377   46395
   46404       2   46371   46356   46377       2   46359   46380   46392       2
   46356   46341   46359       2   46356   46377   46392       2   46356   46377
   46395       2   46353   46371   46356       2   46350   46338   46353       2
   46344   46362   46350       2   46341   46356   46371       2   46341   46356
   46377       2   46341   46359   46380       2   46338   46332   46341       2
   46338   46350   46362       2   46338   46353   46371       2   46335   46332
   46338       2   46335   46332   46341       2   46335   46344   46362       2
   46332   46335   46344       2   46332   46338   46350       2   46332   46338
   46353       2   46332   46341   46356       2   46332   46341   46359       2
   46527   46536   46530       2   46521   46530   46536       2   46518   46509
   46521       2   46518   46527   46536       2   46512   46518   46527       2
   46509   46518   46512       2   46509   46518   46527       2   46509   46521
   46530       2   46503   46512   46518       2   46500   46485   46503       2
   46500   46509   46518       2   46500   46509   46521       2   46488   46500
   46509       2   46485   46500   46488       2   46485   46500   46509       2
   46485   46503   46512       2   46479   46464   46485       2   46467   46488
   46500       2   46464   46449   46467       2   46464   46485   46500       2
   46464   46485   46503       2   46461   46479   46464       2   46458   46446
   46461       2   46452   46470   46458       2   46449   46464   46479       2
   46449   46464   46485       2   46449   46467   46488       2   46446   46440
   46449       2   46446   46458   46470       2   46446   46461   46479       2
   46443   46440   46446       2   46443   46440   46449       2   46443   46452
   46470       2   46440   46443   46452       2   46440   46446   46458       2
   46440   46446   46461       2   46440   46449   46464       2   46440   46449
   46467       2   46635   46644   46638       2   46629   46638   46644       2
   46626   46617   46629       2   46626   46635   46644       2   46620   46626
   46635       2   46617   46626   46620       2   46617   46626   46635       2
   46617   46629   46638       2   46611   46620   46626       2   46608   46593
   46611       2   46608   46617   46626       2   46608   46617   46629       2
   46596   46608   46617       2   46593   46608   46596       2   46593   46608
   46617       2   46593   46611   46620       2   46587   46572   46593       2
   46575   46596   46608       2   46572   46557   46575       2   46572   46593
   46608       2   46572   46593   46611       2   46569   46587   46572       2
   46566   46554   46569       2   46560   46578   46566       2   46557   46572
   46587       2   46557   46572   46593       2   46557   46575   46596       2
   46554   46548   46557       2   46554   46566   46578       2   46554   46569
   46587       2   46551   46548   46554       2   46551   46548   46557       2
   46551   46560   46578       2   46548   46551   46560       2   46548   46554
   46566       2   46548   46554   46569       2   46548   46557   46572       2
   46548   46557   46575       2   46743   46752   46746       2   46737   46746
   46752       2   46734   46725   46737       2   46734   46743   46752       2
   46728   46734   46743       2   46725   46734   46728       2   46725   46734
   46743       2   46725   46737   46746       2   46719   46728   46734       2
   46716   46701   46719       2   46716   46725   46734       2   46716   46725
   46737       2   46704   46716   46725       2   46701   46716   46704       2
   46701   46716   46725       2   46701   46719   46728       2   46695   46680
   46701       2   46683   46704   46716       2   46680   46665   46683       2
   46680   46701   46716       2   46680   46701   46719       2   46677   46695
   46680       2   46674   46662   46677       2   46668   46686   46674       2
   46665   46680   46695       2   46665   46680   46701       2   46665   46683
   46704       2   46662   46656   46665       2   46662   46674   46686       2
   46662   46677   46695       2   46659   46656   46662       2   46659   46656
   46665       2   46659   46668   46686       2   46656   46659   46668       2
   46656   46662   46674       2   46656   46662   46677       2   46656   46665
   46680       2   46656   46665   46683       2   46851   46860   46854       2
   46845   46854   46860       2   46842   46833   46845       2   46842   46851
   46860       2   46836   46842   46851       2   46833   46842   46836       2
   46833   46842   46851       2   46833   46845   46854       2   46827   46836
   46842       2   46824   46809   46827       2   46824   46833   46842       2
   46824   46833   46845       2   46812   46824   46833       2   46809   46824
   46812       2   46809   46824   46833       2   46809   46827   46836       2
   46803   46788   46809       2   46791   46812   46824       2   46788   46773
   46791       2   46788   46809   46824       2   46788   46809   46827       2
   46785   46803   46788       2   46782   46770   46785       2   46776   46794
   46782       2   46773   46788   46803       2   46773   46788   46809       2
   46773   46791   46812       2   46770   46764   46773       2   46770   46782
   46794       2   46770   46785   46803       2   46767   46764   46770       2
   46767   46764   46773       2   46767   46776   46794       2   46764   46767
   46776       2   46764   46770   46782       2   46764   46770   46785       2
   46764   46773   46788       2   46764   46773   46791       2   46959   46968
   46962       2   46953   46962   46968       2   46950   46941   46953       2
   46950   46959   46968       2   46944   46950   46959       2   46941   46950
   46944       2   46941   46950   46959       2   46941   46953   46962       2
   46935   46944   46950       2   46932   46917   46935       2   46932   46941
   46950       2   46932   46941   46953       2   46920   46932   46941       2
   46917   46932   46920       2   46917   46932   46941       2   46917   46935
   46944       2   46911   46896   46917       2   46899   46920   46932       2
   46896   46881   46899       2   46896   46917   46932       2   46896   46917
   46935       2   46893   46911   46896       2   46890   46878   46893       2
   46884   46902   46890       2   46881   46896   46911       2   46881   46896
   46917       2   46881   46899   46920       2   46878   46872   46881       2
   46878   46890   46902       2   46878   46893   46911       2   46875   46872
   46878       2   46875   46872   46881       2   46875   46884   46902       2
   46872   46875   46884       2   46872   46878   46890       2   46872   46878
   46893       2   46872   46881   46896       2   46872   46881   46899       2
   47067   47076   47070       2   47061   47070   47076       2   47058   47049
   47061       2   47058   47067   47076       2   47052   47058   47067       2
   47049   47058   47052       2   47049   47058   47067       2   47049   47061
   47070       2   47043   47052   47058       2   47040   47025   47043       2
   47040   47049   47058       2   47040   47049   47061       2   47028   47040
   47049       2   47025   47040   47028       2   47025   47040   47049       2
   47025   47043   47052       2   47019   47004   47025       2   47007   47028
   47040       2   47004   46989   47007       2   47004   47025   47040       2
   47004   47025   47043       2   47001   47019   47004       2   46998   46986
   47001       2   46992   47010   46998       2   46989   47004   47019       2
   46989   47004   47025       2   46989   47007   47028       2   46986   46980
   46989       2   46986   46998   47010       2   46986   47001   47019       2
   46983   46980   46986       2   46983   46980   46989       2   46983   46992
   47010       2   46980   46983   46992       2   46980   46986   46998       2
   46980   46986   47001       2   46980   46989   47004       2   46980   46989
   47007       2   47175   47184   47178       2   47169   47178   47184       2
   47166   47157   47169       2   47166   47175   47184       2   47160   47166
   47175       2   47157   47166   47160       2   47157   47166   47175       2
   47157   47169   47178       2   47151   47160   47166       2   47148   47133
   47151       2   47148   47157   47166       2   47148   47157   47169       2
   47136   47148   47157       2   47133   47148   47136       2   47133   47148
   47157       2   47133   47151   47160       2   47127   47112   47133       2
   47115   47136   47148       2   47112   47097   47115       2   47112   47133
   47148       2   47112   47133   47151       2   47109   47127   47112       2
   47106   47094   47109       2   47100   47118   47106       2   47097   47112
   47127       2   47097   47112   47133       2   47097   47115   47136       2
   47094   47088   47097       2   47094   47106   47118       2   47094   47109
   47127       2   47091   47088   47094       2   47091   47088   47097       2
   47091   47100   47118       2   47088   47091   47100       2   47088   47094
   47106       2   47088   47094   47109       2   47088   47097   47112       2
   47088   47097   47115       2   47283   47292   47286       2   47277   47286
   47292       2   47274   47265   47277       2   47274   47283   47292       2
   47268   47274   47283       2   47265   47274   47268       2   47265   47274
   47283       2   47265   47277   47286       2   47259   47268   47274       2
   47256   47241   47259       2   47256   47265   47274       2   47256   47265
   47277       2   47244   47256   47265       2   47241   47256   47244       2
   47241   47256   47265       2   47241   47259   47268       2   47235   47220
   47241       2   47223   47244   47256       2   47220   47205   47223       2
   47220   47241   47256       2   47220   47241   47259       2   47217   47235
   47220       2   47214   47202   47217       2   47208   47226   47214       2
   47205   47220   47235       2   47205   47220   47241       2   47205   47223
   47244       2   47202   47196   47205       2   47202   47214   47226       2
   47202   47217   47235       2   47199   47196   47202       2   47199   47196
   47205       2   47199   47208   47226       2   47196   47199   47208       2
   47196   47202   47214       2   47196   47202   47217       2   47196   47205
   47220       2   47196   47205   47223       2   47391   47400   47394       2
   47385   47394   47400       2   47382   47373   47385       2   47382   47391
   47400       2   47376   47382   47391       2   47373   47382   47376       2
   47373   47382   47391       2   47373   47385   47394       2   47367   47376
   47382       2   47364   47349   47367       2   47364   47373   47382       2
   47364   47373   47385       2   47352   47364   47373       2   47349   47364
   47352       2   47349   47364   47373       2   47349   47367   47376       2
   47343   47328   47349       2   47331   47352   47364       2   47328   47313
   47331       2   47328   47349   47364       2   47328   47349   47367       2
   47325   47343   47328       2   47322   47310   47325       2   47316   47334
   47322       2   47313   47328   47343       2   47313   47328   47349       2
   47313   47331   47352       2   47310   47304   47313       2   47310   47322
   47334       2   47310   47325   47343       2   47307   47304   47310       2
   47307   47304   47313       2   47307   47316   47334       2   47304   47307
   47316       2   47304   47310   47322       2   47304   47310   47325       2
   47304   47313   47328       2   47304   47313   47331       2   47499   47508
   47502       2   47493   47502   47508       2   47490   47481   47493       2
   47490   47499   47508       2   47484   47490   47499       2   47481   47490
   47484       2   47481   47490   47499       2   47481   47493   47502       2
   47475   47484   47490       2   47472   47457   47475       2   47472   47481
   47490       2   47472   47481   47493       2   47460   47472   47481       2
   47457   47472   47460       2   47457   47472   47481       2   47457   47475
   47484       2   47451   47436   47457       2   47439   47460   47472       2
   47436   47421   47439       2   47436   47457   47472       2   47436   47457
   47475       2   47433   47451   47436       2   47430   47418   47433       2
   47424   47442   47430       2   47421   47436   47451       2   47421   47436
   47457       2   47421   47439   47460       2   47418   47412   47421       2
   47418   47430   47442       2   47418   47433   47451       2   47415   47412
   47418       2   47415   47412   47421       2   47415   47424   47442       2
   47412   47415   47424       2   47412   47418   47430       2   47412   47418
   47433       2   47412   47421   47436       2   47412   47421   47439       2
   47607   47616   47610       2   47601   47610   47616       2   47598   47589
   47601       2   47598   47607   47616       2   47592   47598   47607       2
   47589   47598   47592       2   47589   47598   47607       2   47589   47601
   47610       2   47583   47592   47598       2   47580   47565   47583       2
   47580   47589   47598       2   47580   47589   47601       2   47568   47580
   47589       2   47565   47580   47568       2   47565   47580   47589       2
   47565   47583   47592       2   47559   47544   47565       2   47547   47568
   47580       2   47544   47529   47547       2   47544   47565   47580       2
   47544   47565   47583       2   47541   47559   47544       2   47538   47526
   47541       2   47532   47550   47538       2   47529   47544   47559       2
   47529   47544   47565       2   47529   47547   47568       2   47526   47520
   47529       2   47526   47538   47550       2   47526   47541   47559       2
   47523   47520   47526       2   47523   47520   47529       2   47523   47532
   47550       2   47520   47523   47532       2   47520   47526   47538       2
   47520   47526   47541       2   47520   47529   47544       2   47520   47529
   47547       2   47715   47724   47718       2   47709   47718   47724       2
   47706   47697   47709       2   47706   47715   47724       2   47700   47706
   47715       2   47697   47706   47700       2   47697   47706   47715       2
   47697   47709   47718       2   47691   47700   47706       2   47688   47673
   47691       2   47688   47697   47706       2   47688   47697   47709       2
   47676   47688   47697       2   47673   47688   47676       2   47673   47688
   47697       2   47673   47691   47700       2   47667   47652   47673       2
   47655   47676   47688       2   47652   47637   47655       2   47652   47673
   47688       2   47652   47673   47691       2   47649   47667   47652       2
   47646   47634   47649       2   47640   47658   47646       2   47637   47652
   47667       2   47637   47652   47673       2   47637   47655   47676       2
   47634   47628   47637       2   47634   47646   47658       2   47634   47649
   47667       2   47631   47628   47634       2   47631   47628   47637       2
   47631   47640   47658       2   47628   47631   47640       2   47628   47634
   47646       2   47628   47634   47649       2   47628   47637   47652       2
   47628   47637   47655       2   47823   47832   47826       2   47817   47826
   47832       2   47814   47805   47817       2   47814   47823   47832       2
   47808   47814   47823       2   47805   47814   47808       2   47805   47814
   47823       2   47805   47817   47826       2   47799   47808   47814       2
   47796   47781   47799       2   47796   47805   47814       2   47796   47805
   47817       2   47784   47796   47805       2   47781   47796   47784       2
   47781   47796   47805       2   47781   47799   47808       2   47775   47760
   47781       2   47763   47784   47796       2   47760   47745   47763       2
   47760   47781   47796       2   47760   47781   47799       2   47757   47775
   47760       2   47754   47742   47757       2   47748   47766   47754       2
   47745   47760   47775       2   47745   47760   47781       2   47745   47763
   47784       2   47742   47736   47745       2   47742   47754   47766       2
   47742   47757   47775       2   47739   47736   47742       2   47739   47736
   47745       2   47739   47748   47766       2   47736   47739   47748       2
   47736   47742   47754       2   47736   47742   47757       2   47736   47745
   47760       2   47736   47745   47763       2   47931   47940   47934       2
   47925   47934   47940       2   47922   47913   47925       2   47922   47931
   47940       2   47916   47922   47931       2   47913   47922   47916       2
   47913   47922   47931       2   47913   47925   47934       2   47907   47916
   47922       2   47904   47889   47907       2   47904   47913   47922       2
   47904   47913   47925       2   47892   47904   47913       2   47889   47904
   47892       2   47889   47904   47913       2   47889   47907   47916       2
   47883   47868   47889       2   47871   47892   47904       2   47868   47853
   47871       2   47868   47889   47904       2   47868   47889   47907       2
   47865   47883   47868       2   47862   47850   47865       2   47856   47874
   47862       2   47853   47868   47883       2   47853   47868   47889       2
   47853   47871   47892       2   47850   47844   47853       2   47850   47862
   47874       2   47850   47865   47883       2   47847   47844   47850       2
   47847   47844   47853       2   47847   47856   47874       2   47844   47847
   47856       2   47844   47850   47862       2   47844   47850   47865       2
   47844   47853   47868       2   47844   47853   47871       2   48039   48048
   48042       2   48033   48042   48048       2   48030   48021   48033       2
   48030   48039   48048       2   48024   48030   48039       2   48021   48030
   48024       2   48021   48030   48039       2   48021   48033   48042       2
   48015   48024   48030       2   48012   47997   48015       2   48012   48021
   48030       2   48012   48021   48033       2   48000   48012   48021       2
   47997   48012   48000       2   47997   48012   48021       2   47997   48015
   48024       2   47991   47976   47997       2   47979   48000   48012       2
   47976   47961   47979       2   47976   47997   48012       2   47976   47997
   48015       2   47973   47991   47976       2   47970   47958   47973       2
   47964   47982   47970       2   47961   47976   47991       2   47961   47976
   47997       2   47961   47979   48000       2   47958   47952   47961       2
   47958   47970   47982       2   47958   47973   47991       2   47955   47952
   47958       2   47955   47952   47961       2   47955   47964   47982       2
   47952   47955   47964       2   47952   47958   47970       2   47952   47958
   47973       2   47952   47961   47976       2   47952   47961   47979       2
   48147   48156   48150       2   48141   48150   48156       2   48138   48129
   48141       2   48138   48147   48156       2   48132   48138   48147       2
   48129   48138   48132       2   48129   48138   48147       2   48129   48141
   48150       2   48123   48132   48138       2   48120   48105   48123       2
   48120   48129   48138       2   48120   48129   48141       2   48108   48120
   48129       2   48105   48120   48108       2   48105   48120   48129       2
   48105   48123   48132       2   48099   48084   48105       2   48087   48108
   48120       2   48084   48069   48087       2   48084   48105   48120       2
   48084   48105   48123       2   48081   48099   48084       2   48078   48066
   48081       2   48072   48090   48078       2   48069   48084   48099       2
   48069   48084   48105       2   48069   48087   48108       2   48066   48060
   48069       2   48066   48078   48090       2   48066   48081   48099       2
   48063   48060   48066       2   48063   48060   48069       2   48063   48072
   48090       2   48060   48063   48072       2   48060   48066   48078       2
   48060   48066   48081       2   48060   48069   48084       2   48060   48069
   48087       2   48255   48264   48258       2   48249   48258   48264       2
   48246   48237   48249       2   48246   48255   48264       2   48240   48246
   48255       2   48237   48246   48240       2   48237   48246   48255       2
   48237   48249   48258       2   48231   48240   48246       2   48228   48213
   48231       2   48228   48237   48246       2   48228   48237   48249       2
   48216   48228   48237       2   48213   48228   48216       2   48213   48228
   48237       2   48213   48231   48240       2   48207   48192   48213       2
   48195   48216   48228       2   48192   48177   48195       2   48192   48213
   48228       2   48192   48213   48231       2   48189   48207   48192       2
   48186   48174   48189       2   48180   48198   48186       2   48177   48192
   48207       2   48177   48192   48213       2   48177   48195   48216       2
   48174   48168   48177       2   48174   48186   48198       2   48174   48189
   48207       2   48171   48168   48174       2   48171   48168   48177       2
   48171   48180   48198       2   48168   48171   48180       2   48168   48174
   48186       2   48168   48174   48189       2   48168   48177   48192       2
   48168   48177   48195       2   48363   48372   48366       2   48357   48366
   48372       2   48354   48345   48357       2   48354   48363   48372       2
   48348   48354   48363       2   48345   48354   48348       2   48345   48354
   48363       2   48345   48357   48366       2   48339   48348   48354       2
   48336   48321   48339       2   48336   48345   48354       2   48336   48345
   48357       2   48324   48336   48345       2   48321   48336   48324       2
   48321   48336   48345       2   48321   48339   48348       2   48315   48300
   48321       2   48303   48324   48336       2   48300   48285   48303       2
   48300   48321   48336       2   48300   48321   48339       2   48297   48315
   48300       2   48294   48282   48297       2   48288   48306   48294       2
   48285   48300   48315       2   48285   48300   48321       2   48285   48303
   48324       2   48282   48276   48285       2   48282   48294   48306       2
   48282   48297   48315       2   48279   48276   48282       2   48279   48276
   48285       2   48279   48288   48306       2   48276   48279   48288       2
   48276   48282   48294       2   48276   48282   48297       2   48276   48285
   48300       2   48276   48285   48303       2   48471   48480   48474       2
   48465   48474   48480       2   48462   48453   48465       2   48462   48471
   48480       2   48456   48462   48471       2   48453   48462   48456       2
   48453   48462   48471       2   48453   48465   48474       2   48447   48456
   48462       2   48444   48429   48447       2   48444   48453   48462       2
   48444   48453   48465       2   48432   48444   48453       2   48429   48444
   48432       2   48429   48444   48453       2   48429   48447   48456       2
   48423   48408   48429       2   48411   48432   48444       2   48408   48393
   48411       2   48408   48429   48444       2   48408   48429   48447       2
   48405   48423   48408       2   48402   48390   48405       2   48396   48414
   48402       2   48393   48408   48423       2   48393   48408   48429       2
   48393   48411   48432       2   48390   48384   48393       2   48390   48402
   48414       2   48390   48405   48423       2   48387   48384   48390       2
   48387   48384   48393       2   48387   48396   48414       2   48384   48387
   48396       2   48384   48390   48402       2   48384   48390   48405       2
   48384   48393   48408       2   48384   48393   48411       2   48579   48588
   48582       2   48573   48582   48588       2   48570   48561   48573       2
   48570   48579   48588       2   48564   48570   48579       2   48561   48570
   48564       2   48561   48570   48579       2   48561   48573   48582       2
   48555   48564   48570       2   48552   48537   48555       2   48552   48561
   48570       2   48552   48561   48573       2   48540   48552   48561       2
   48537   48552   48540       2   48537   48552   48561       2   48537   48555
   48564       2   48531   48516   48537       2   48519   48540   48552       2
   48516   48501   48519       2   48516   48537   48552       2   48516   48537
   48555       2   48513   48531   48516       2   48510   48498   48513       2
   48504   48522   48510       2   48501   48516   48531       2   48501   48516
   48537       2   48501   48519   48540       2   48498   48492   48501       2
   48498   48510   48522       2   48498   48513   48531       2   48495   48492
   48498       2   48495   48492   48501       2   48495   48504   48522       2
   48492   48495   48504       2   48492   48498   48510       2   48492   48498
   48513       2   48492   48501   48516       2   48492   48501   48519       2
   48687   48696   48690       2   48681   48690   48696       2   48678   48669
   48681       2   48678   48687   48696       2   48672   48678   48687       2
   48669   48678   48672       2   48669   48678   48687       2   48669   48681
   48690       2   48663   48672   48678       2   48660   48645   48663       2
   48660   48669   48678       2   48660   48669   48681       2   48648   48660
   48669       2   48645   48660   48648       2   48645   48660   48669       2
   48645   48663   48672       2   48639   48624   48645       2   48627   48648
   48660       2   48624   48609   48627       2   48624   48645   48660       2
   48624   48645   48663       2   48621   48639   48624       2   48618   48606
   48621       2   48612   48630   48618       2   48609   48624   48639       2
   48609   48624   48645       2   48609   48627   48648       2   48606   48600
   48609       2   48606   48618   48630       2   48606   48621   48639       2
   48603   48600   48606       2   48603   48600   48609       2   48603   48612
   48630       2   48600   48603   48612       2   48600   48606   48618       2
   48600   48606   48621       2   48600   48609   48624       2   48600   48609
   48627       2   48795   48804   48798       2   48789   48798   48804       2
   48786   48777   48789       2   48786   48795   48804       2   48780   48786
   48795       2   48777   48786   48780       2   48777   48786   48795       2
   48777   48789   48798       2   48771   48780   48786       2   48768   48753
   48771       2   48768   48777   48786       2   48768   48777   48789       2
   48756   48768   48777       2   48753   48768   48756       2   48753   48768
   48777       2   48753   48771   48780       2   48747   48732   48753       2
   48735   48756   48768       2   48732   48717   48735       2   48732   48753
   48768       2   48732   48753   48771       2   48729   48747   48732       2
   48726   48714   48729       2   48720   48738   48726       2   48717   48732
   48747       2   48717   48732   48753       2   48717   48735   48756       2
   48714   48708   48717       2   48714   48726   48738       2   48714   48729
   48747       2   48711   48708   48714       2   48711   48708   48717       2
   48711   48720   48738       2   48708   48711   48720       2   48708   48714
   48726       2   48708   48714   48729       2   48708   48717   48732       2
   48708   48717   48735       2   48903   48912   48906       2   48897   48906
   48912       2   48894   48885   48897       2   48894   48903   48912       2
   48888   48894   48903       2   48885   48894   48888       2   48885   48894
   48903       2   48885   48897   48906       2   48879   48888   48894       2
   48876   48861   48879       2   48876   48885   48894       2   48876   48885
   48897       2   48864   48876   48885       2   48861   48876   48864       2
   48861   48876   48885       2   48861   48879   48888       2   48855   48840
   48861       2   48843   48864   48876       2   48840   48825   48843       2
   48840   48861   48876       2   48840   48861   48879       2   48837   48855
   48840       2   48834   48822   48837       2   48828   48846   48834       2
   48825   48840   48855       2   48825   48840   48861       2   48825   48843
   48864       2   48822   48816   48825       2   48822   48834   48846       2
   48822   48837   48855       2   48819   48816   48822       2   48819   48816
   48825       2   48819   48828   48846       2   48816   48819   48828       2
   48816   48822   48834       2   48816   48822   48837       2   48816   48825
   48840       2   48816   48825   48843       2   49011   49020   49014       2
   49005   49014   49020       2   49002   48993   49005       2   49002   49011
   49020       2   48996   49002   49011       2   48993   49002   48996       2
   48993   49002   49011       2   48993   49005   49014       2   48987   48996
   49002       2   48984   48969   48987       2   48984   48993   49002       2
   48984   48993   49005       2   48972   48984   48993       2   48969   48984
   48972       2   48969   48984   48993       2   48969   48987   48996       2
   48963   48948   48969       2   48951   48972   48984       2   48948   48933
   48951       2   48948   48969   48984       2   48948   48969   48987       2
   48945   48963   48948       2   48942   48930   48945       2   48936   48954
   48942       2   48933   48948   48963       2   48933   48948   48969       2
   48933   48951   48972       2   48930   48924   48933       2   48930   48942
   48954       2   48930   48945   48963       2   48927   48924   48930       2
   48927   48924   48933       2   48927   48936   48954       2   48924   48927
   48936       2   48924   48930   48942       2   48924   48930   48945       2
   48924   48933   48948       2   48924   48933   48951       2   49119   49128
   49122       2   49113   49122   49128       2   49110   49101   49113       2
   49110   49119   49128       2   49104   49110   49119       2   49101   49110
   49104       2   49101   49110   49119       2   49101   49113   49122       2
   49095   49104   49110       2   49092   49077   49095       2   49092   49101
   49110       2   49092   49101   49113       2   49080   49092   49101       2
   49077   49092   49080       2   49077   49092   49101       2   49077   49095
   49104       2   49071   49056   49077       2   49059   49080   49092       2
   49056   49041   49059       2   49056   49077   49092       2   49056   49077
   49095       2   49053   49071   49056       2   49050   49038   49053       2
   49044   49062   49050       2   49041   49056   49071       2   49041   49056
   49077       2   49041   49059   49080       2   49038   49032   49041       2
   49038   49050   49062       2   49038   49053   49071       2   49035   49032
   49038       2   49035   49032   49041       2   49035   49044   49062       2
   49032   49035   49044       2   49032   49038   49050       2   49032   49038
   49053       2   49032   49041   49056       2   49032   49041   49059       2
   49227   49236   49230       2   49221   49230   49236       2   49218   49209
   49221       2   49218   49227   49236       2   49212   49218   49227       2
   49209   49218   49212       2   49209   49218   49227       2   49209   49221
   49230       2   49203   49212   49218       2   49200   49185   49203       2
   49200   49209   49218       2   49200   49209   49221       2   49188   49200
   49209       2   49185   49200   49188       2   49185   49200   49209       2
   49185   49203   49212       2   49179   49164   49185       2   49167   49188
   49200       2   49164   49149   49167       2   49164   49185   49200       2
   49164   49185   49203       2   49161   49179   49164       2   49158   49146
   49161       2   49152   49170   49158       2   49149   49164   49179       2
   49149   49164   49185       2   49149   49167   49188       2   49146   49140
   49149       2   49146   49158   49170       2   49146   49161   49179       2
   49143   49140   49146       2   49143   49140   49149       2   49143   49152
   49170       2   49140   49143   49152       2   49140   49146   49158       2
   49140   49146   49161       2   49140   49149   49164       2   49140   49149
   49167       2   49335   49344   49338       2   49329   49338   49344       2
   49326   49317   49329       2   49326   49335   49344       2   49320   49326
   49335       2   49317   49326   49320       2   49317   49326   49335       2
   49317   49329   49338       2   49311   49320   49326       2   49308   49293
   49311       2   49308   49317   49326       2   49308   49317   49329       2
   49296   49308   49317       2   49293   49308   49296       2   49293   49308
   49317       2   49293   49311   49320       2   49287   49272   49293       2
   49275   49296   49308       2   49272   49257   49275       2   49272   49293
   49308       2   49272   49293   49311       2   49269   49287   49272       2
   49266   49254   49269       2   49260   49278   49266       2   49257   49272
   49287       2   49257   49272   49293       2   49257   49275   49296       2
   49254   49248   49257       2   49254   49266   49278       2   49254   49269
   49287       2   49251   49248   49254       2   49251   49248   49257       2
   49251   49260   49278       2   49248   49251   49260       2   49248   49254
   49266       2   49248   49254   49269       2   49248   49257   49272       2
   49248   49257   49275       2   49443   49452   49446       2   49437   49446
   49452       2   49434   49425   49437       2   49434   49443   49452       2
   49428   49434   49443       2   49425   49434   49428       2   49425   49434
   49443       2   49425   49437   49446       2   49419   49428   49434       2
   49416   49401   49419       2   49416   49425   49434       2   49416   49425
   49437       2   49404   49416   49425       2   49401   49416   49404       2
   49401   49416   49425       2   49401   49419   49428       2   49395   49380
   49401       2   49383   49404   49416       2   49380   49365   49383       2
   49380   49401   49416       2   49380   49401   49419       2   49377   49395
   49380       2   49374   49362   49377       2   49368   49386   49374       2
   49365   49380   49395       2   49365   49380   49401       2   49365   49383
   49404       2   49362   49356   49365       2   49362   49374   49386       2
   49362   49377   49395       2   49359   49356   49362       2   49359   49356
   49365       2   49359   49368   49386       2   49356   49359   49368       2
   49356   49362   49374       2   49356   49362   49377       2   49356   49365
   49380       2   49356   49365   49383       2   49551   49560   49554       2
   49545   49554   49560       2   49542   49533   49545       2   49542   49551
   49560       2   49536   49542   49551       2   49533   49542   49536       2
   49533   49542   49551       2   49533   49545   49554       2   49527   49536
   49542       2   49524   49509   49527       2   49524   49533   49542       2
   49524   49533   49545       2   49512   49524   49533       2   49509   49524
   49512       2   49509   49524   49533       2   49509   49527   49536       2
   49503   49488   49509       2   49491   49512   49524       2   49488   49473
   49491       2   49488   49509   49524       2   49488   49509   49527       2
   49485   49503   49488       2   49482   49470   49485       2   49476   49494
   49482       2   49473   49488   49503       2   49473   49488   49509       2
   49473   49491   49512       2   49470   49464   49473       2   49470   49482
   49494       2   49470   49485   49503       2   49467   49464   49470       2
   49467   49464   49473       2   49467   49476   49494       2   49464   49467
   49476       2   49464   49470   49482       2   49464   49470   49485       2
   49464   49473   49488       2   49464   49473   49491       2   49659   49668
   49662       2   49653   49662   49668       2   49650   49641   49653       2
   49650   49659   49668       2   49644   49650   49659       2   49641   49650
   49644       2   49641   49650   49659       2   49641   49653   49662       2
   49635   49644   49650       2   49632   49617   49635       2   49632   49641
   49650       2   49632   49641   49653       2   49620   49632   49641       2
   49617   49632   49620       2   49617   49632   49641       2   49617   49635
   49644       2   49611   49596   49617       2   49599   49620   49632       2
   49596   49581   49599       2   49596   49617   49632       2   49596   49617
   49635       2   49593   49611   49596       2   49590   49578   49593       2
   49584   49602   49590       2   49581   49596   49611       2   49581   49596
   49617       2   49581   49599   49620       2   49578   49572   49581       2
   49578   49590   49602       2   49578   49593   49611       2   49575   49572
   49578       2   49575   49572   49581       2   49575   49584   49602       2
   49572   49575   49584       2   49572   49578   49590       2   49572   49578
   49593       2   49572   49581   49596       2   49572   49581   49599       2
   49767   49776   49770       2   49761   49770   49776       2   49758   49749
   49761       2   49758   49767   49776       2   49752   49758   49767       2
   49749   49758   49752       2   49749   49758   49767       2   49749   49761
   49770       2   49743   49752   49758       2   49740   49725   49743       2
   49740   49749   49758       2   49740   49749   49761       2   49728   49740
   49749       2   49725   49740   49728       2   49725   49740   49749       2
   49725   49743   49752       2   49719   49704   49725       2   49707   49728
   49740       2   49704   49689   49707       2   49704   49725   49740       2
   49704   49725   49743       2   49701   49719   49704       2   49698   49686
   49701       2   49692   49710   49698       2   49689   49704   49719       2
   49689   49704   49725       2   49689   49707   49728       2   49686   49680
   49689       2   49686   49698   49710       2   49686   49701   49719       2
   49683   49680   49686       2   49683   49680   49689       2   49683   49692
   49710       2   49680   49683   49692       2   49680   49686   49698       2
   49680   49686   49701       2   49680   49689   49704       2   49680   49689
   49707       2   49875   49884   49878       2   49869   49878   49884       2
   49866   49857   49869       2   49866   49875   49884       2   49860   49866
   49875       2   49857   49866   49860       2   49857   49866   49875       2
   49857   49869   49878       2   49851   49860   49866       2   49848   49833
   49851       2   49848   49857   49866       2   49848   49857   49869       2
   49836   49848   49857       2   49833   49848   49836       2   49833   49848
   49857       2   49833   49851   49860       2   49827   49812   49833       2
   49815   49836   49848       2   49812   49797   49815       2   49812   49833
   49848       2   49812   49833   49851       2   49809   49827   49812       2
   49806   49794   49809       2   49800   49818   49806       2   49797   49812
   49827       2   49797   49812   49833       2   49797   49815   49836       2
   49794   49788   49797       2   49794   49806   49818       2   49794   49809
   49827       2   49791   49788   49794       2   49791   49788   49797       2
   49791   49800   49818       2   49788   49791   49800       2   49788   49794
   49806       2   49788   49794   49809       2   49788   49797   49812       2
   49788   49797   49815       2   49983   49992   49986       2   49977   49986
   49992       2   49974   49965   49977       2   49974   49983   49992       2
   49968   49974   49983       2   49965   49974   49968       2   49965   49974
   49983       2   49965   49977   49986       2   49959   49968   49974       2
   49956   49941   49959       2   49956   49965   49974       2   49956   49965
   49977       2   49944   49956   49965       2   49941   49956   49944       2
   49941   49956   49965       2   49941   49959   49968       2   49935   49920
   49941       2   49923   49944   49956       2   49920   49905   49923       2
   49920   49941   49956       2   49920   49941   49959       2   49917   49935
   49920       2   49914   49902   49917       2   49908   49926   49914       2
   49905   49920   49935       2   49905   49920   49941       2   49905   49923
   49944       2   49902   49896   49905       2   49902   49914   49926       2
   49902   49917   49935       2   49899   49896   49902       2   49899   49896
   49905       2   49899   49908   49926       2   49896   49899   49908       2
   49896   49902   49914       2   49896   49902   49917       2   49896   49905
   49920       2   49896   49905   49923       2   50091   50100   50094       2
   50085   50094   50100       2   50082   50073   50085       2   50082   50091
   50100       2   50076   50082   50091       2   50073   50082   50076       2
   50073   50082   50091       2   50073   50085   50094       2   50067   50076
   50082       2   50064   50049   50067       2   50064   50073   50082       2
   50064   50073   50085       2   50052   50064   50073       2   50049   50064
   50052       2   50049   50064   50073       2   50049   50067   50076       2
   50043   50028   50049       2   50031   50052   50064       2   50028   50013
   50031       2   50028   50049   50064       2   50028   50049   50067       2
   50025   50043   50028       2   50022   50010   50025       2   50016   50034
   50022       2   50013   50028   50043       2   50013   50028   50049       2
   50013   50031   50052       2   50010   50004   50013       2   50010   50022
   50034       2   50010   50025   50043       2   50007   50004   50010       2
   50007   50004   50013       2   50007   50016   50034       2   50004   50007
   50016       2   50004   50010   50022       2   50004   50010   50025       2
   50004   50013   50028       2   50004   50013   50031       2   50199   50208
   50202       2   50193   50202   50208       2   50190   50181   50193       2
   50190   50199   50208       2   50184   50190   50199       2   50181   50190
   50184       2   50181   50190   50199       2   50181   50193   50202       2
   50175   50184   50190       2   50172   50157   50175       2   50172   50181
   50190       2   50172   50181   50193       2   50160   50172   50181       2
   50157   50172   50160       2   50157   50172   50181       2   50157   50175
   50184       2   50151   50136   50157       2   50139   50160   50172       2
   50136   50121   50139       2   50136   50157   50172       2   50136   50157
   50175       2   50133   50151   50136       2   50130   50118   50133       2
   50124   50142   50130       2   50121   50136   50151       2   50121   50136
   50157       2   50121   50139   50160       2   50118   50112   50121       2
   50118   50130   50142       2   50118   50133   50151       2   50115   50112
   50118       2   50115   50112   50121       2   50115   50124   50142       2
   50112   50115   50124       2   50112   50118   50130       2   50112   50118
   50133       2   50112   50121   50136       2   50112   50121   50139       2
   50307   50316   50310       2   50301   50310   50316       2   50298   50289
   50301       2   50298   50307   50316       2   50292   50298   50307       2
   50289   50298   50292       2   50289   50298   50307       2   50289   50301
   50310       2   50283   50292   50298       2   50280   50265   50283       2
   50280   50289   50298       2   50280   50289   50301       2   50268   50280
   50289       2   50265   50280   50268       2   50265   50280   50289       2
   50265   50283   50292       2   50259   50244   50265       2   50247   50268
   50280       2   50244   50229   50247       2   50244   50265   50280       2
   50244   50265   50283       2   50241   50259   50244       2   50238   50226
   50241       2   50232   50250   50238       2   50229   50244   50259       2
   50229   50244   50265       2   50229   50247   50268       2   50226   50220
   50229       2   50226   50238   50250       2   50226   50241   50259       2
   50223   50220   50226       2   50223   50220   50229       2   50223   50232
   50250       2   50220   50223   50232       2   50220   50226   50238       2
   50220   50226   50241       2   50220   50229   50244       2   50220   50229
   50247       2   50415   50424   50418       2   50409   50418   50424       2
   50406   50397   50409       2   50406   50415   50424       2   50400   50406
   50415       2   50397   50406   50400       2   50397   50406   50415       2
   50397   50409   50418       2   50391   50400   50406       2   50388   50373
   50391       2   50388   50397   50406       2   50388   50397   50409       2
   50376   50388   50397       2   50373   50388   50376       2   50373   50388
   50397       2   50373   50391   50400       2   50367   50352   50373       2
   50355   50376   50388       2   50352   50337   50355       2   50352   50373
   50388       2   50352   50373   50391       2   50349   50367   50352       2
   50346   50334   50349       2   50340   50358   50346       2   50337   50352
   50367       2   50337   50352   50373       2   50337   50355   50376       2
   50334   50328   50337       2   50334   50346   50358       2   50334   50349
   50367       2   50331   50328   50334       2   50331   50328   50337       2
   50331   50340   50358       2   50328   50331   50340       2   50328   50334
   50346       2   50328   50334   50349       2   50328   50337   50352       2
   50328   50337   50355       2   50523   50532   50526       2   50517   50526
   50532       2   50514   50505   50517       2   50514   50523   50532       2
   50508   50514   50523       2   50505   50514   50508       2   50505   50514
   50523       2   50505   50517   50526       2   50499   50508   50514       2
   50496   50481   50499       2   50496   50505   50514       2   50496   50505
   50517       2   50484   50496   50505       2   50481   50496   50484       2
   50481   50496   50505       2   50481   50499   50508       2   50475   50460
   50481       2   50463   50484   50496       2   50460   50445   50463       2
   50460   50481   50496       2   50460   50481   50499       2   50457   50475
   50460       2   50454   50442   50457       2   50448   50466   50454       2
   50445   50460   50475       2   50445   50460   50481       2   50445   50463
   50484       2   50442   50436   50445       2   50442   50454   50466       2
   50442   50457   50475       2   50439   50436   50442       2   50439   50436
   50445       2   50439   50448   50466       2   50436   50439   50448       2
   50436   50442   50454       2   50436   50442   50457       2   50436   50445
   50460       2   50436   50445   50463       2   50631   50640   50634       2
   50625   50634   50640       2   50622   50613   50625       2   50622   50631
   50640       2   50616   50622   50631       2   50613   50622   50616       2
   50613   50622   50631       2   50613   50625   50634       2   50607   50616
   50622       2   50604   50589   50607       2   50604   50613   50622       2
   50604   50613   50625       2   50592   50604   50613       2   50589   50604
   50592       2   50589   50604   50613       2   50589   50607   50616       2
   50583   50568   50589       2   50571   50592   50604       2   50568   50553
   50571       2   50568   50589   50604       2   50568   50589   50607       2
   50565   50583   50568       2   50562   50550   50565       2   50556   50574
   50562       2   50553   50568   50583       2   50553   50568   50589       2
   50553   50571   50592       2   50550   50544   50553       2   50550   50562
   50574       2   50550   50565   50583       2   50547   50544   50550       2
   50547   50544   50553       2   50547   50556   50574       2   50544   50547
   50556       2   50544   50550   50562       2   50544   50550   50565       2
   50544   50553   50568       2   50544   50553   50571       2   50739   50748
   50742       2   50733   50742   50748       2   50730   50721   50733       2
   50730   50739   50748       2   50724   50730   50739       2   50721   50730
   50724       2   50721   50730   50739       2   50721   50733   50742       2
   50715   50724   50730       2   50712   50697   50715       2   50712   50721
   50730       2   50712   50721   50733       2   50700   50712   50721       2
   50697   50712   50700       2   50697   50712   50721       2   50697   50715
   50724       2   50691   50676   50697       2   50679   50700   50712       2
   50676   50661   50679       2   50676   50697   50712       2   50676   50697
   50715       2   50673   50691   50676       2   50670   50658   50673       2
   50664   50682   50670       2   50661   50676   50691       2   50661   50676
   50697       2   50661   50679   50700       2   50658   50652   50661       2
   50658   50670   50682       2   50658   50673   50691       2   50655   50652
   50658       2   50655   50652   50661       2   50655   50664   50682       2
   50652   50655   50664       2   50652   50658   50670       2   50652   50658
   50673       2   50652   50661   50676       2   50652   50661   50679       2
   50847   50856   50850       2   50841   50850   50856       2   50838   50829
   50841       2   50838   50847   50856       2   50832   50838   50847       2
   50829   50838   50832       2   50829   50838   50847       2   50829   50841
   50850       2   50823   50832   50838       2   50820   50805   50823       2
   50820   50829   50838       2   50820   50829   50841       2   50808   50820
   50829       2   50805   50820   50808       2   50805   50820   50829       2
   50805   50823   50832       2   50799   50784   50805       2   50787   50808
   50820       2   50784   50769   50787       2   50784   50805   50820       2
   50784   50805   50823       2   50781   50799   50784       2   50778   50766
   50781       2   50772   50790   50778       2   50769   50784   50799       2
   50769   50784   50805       2   50769   50787   50808       2   50766   50760
   50769       2   50766   50778   50790       2   50766   50781   50799       2
   50763   50760   50766       2   50763   50760   50769       2   50763   50772
   50790       2   50760   50763   50772       2   50760   50766   50778       2
   50760   50766   50781       2   50760   50769   50784       2   50760   50769
   50787       2   50955   50964   50958       2   50949   50958   50964       2
   50946   50937   50949       2   50946   50955   50964       2   50940   50946
   50955       2   50937   50946   50940       2   50937   50946   50955       2
   50937   50949   50958       2   50931   50940   50946       2   50928   50913
   50931       2   50928   50937   50946       2   50928   50937   50949       2
   50916   50928   50937       2   50913   50928   50916       2   50913   50928
   50937       2   50913   50931   50940       2   50907   50892   50913       2
   50895   50916   50928       2   50892   50877   50895       2   50892   50913
   50928       2   50892   50913   50931       2   50889   50907   50892       2
   50886   50874   50889       2   50880   50898   50886       2   50877   50892
   50907       2   50877   50892   50913       2   50877   50895   50916       2
   50874   50868   50877       2   50874   50886   50898       2   50874   50889
   50907       2   50871   50868   50874       2   50871   50868   50877       2
   50871   50880   50898       2   50868   50871   50880       2   50868   50874
   50886       2   50868   50874   50889       2   50868   50877   50892       2
   50868   50877   50895       2   51063   51072   51066       2   51057   51066
   51072       2   51054   51045   51057       2   51054   51063   51072       2
   51048   51054   51063       2   51045   51054   51048       2   51045   51054
   51063       2   51045   51057   51066       2   51039   51048   51054       2
   51036   51021   51039       2   51036   51045   51054       2   51036   51045
   51057       2   51024   51036   51045       2   51021   51036   51024       2
   51021   51036   51045       2   51021   51039   51048       2   51015   51000
   51021       2   51003   51024   51036       2   51000   50985   51003       2
   51000   51021   51036       2   51000   51021   51039       2   50997   51015
   51000       2   50994   50982   50997       2   50988   51006   50994       2
   50985   51000   51015       2   50985   51000   51021       2   50985   51003
   51024       2   50982   50976   50985       2   50982   50994   51006       2
   50982   50997   51015       2   50979   50976   50982       2   50979   50976
   50985       2   50979   50988   51006       2   50976   50979   50988       2
   50976   50982   50994       2   50976   50982   50997       2   50976   50985
   51000       2   50976   50985   51003       2   51171   51180   51174       2
   51165   51174   51180       2   51162   51153   51165       2   51162   51171
   51180       2   51156   51162   51171       2   51153   51162   51156       2
   51153   51162   51171       2   51153   51165   51174       2   51147   51156
   51162       2   51144   51129   51147       2   51144   51153   51162       2
   51144   51153   51165       2   51132   51144   51153       2   51129   51144
   51132       2   51129   51144   51153       2   51129   51147   51156       2
   51123   51108   51129       2   51111   51132   51144       2   51108   51093
   51111       2   51108   51129   51144       2   51108   51129   51147       2
   51105   51123   51108       2   51102   51090   51105       2   51096   51114
   51102       2   51093   51108   51123       2   51093   51108   51129       2
   51093   51111   51132       2   51090   51084   51093       2   51090   51102
   51114       2   51090   51105   51123       2   51087   51084   51090       2
   51087   51084   51093       2   51087   51096   51114       2   51084   51087
   51096       2   51084   51090   51102       2   51084   51090   51105       2
   51084   51093   51108       2   51084   51093   51111       2   51279   51288
   51282       2   51273   51282   51288       2   51270   51261   51273       2
   51270   51279   51288       2   51264   51270   51279       2   51261   51270
   51264       2   51261   51270   51279       2   51261   51273   51282       2
   51255   51264   51270       2   51252   51237   51255       2   51252   51261
   51270       2   51252   51261   51273       2   51240   51252   51261       2
   51237   51252   51240       2   51237   51252   51261       2   51237   51255
   51264       2   51231   51216   51237       2   51219   51240   51252       2
   51216   51201   51219       2   51216   51237   51252       2   51216   51237
   51255       2   51213   51231   51216       2   51210   51198   51213       2
   51204   51222   51210       2   51201   51216   51231       2   51201   51216
   51237       2   51201   51219   51240       2   51198   51192   51201       2
   51198   51210   51222       2   51198   51213   51231       2   51195   51192
   51198       2   51195   51192   51201       2   51195   51204   51222       2
   51192   51195   51204       2   51192   51198   51210       2   51192   51198
   51213       2   51192   51201   51216       2   51192   51201   51219       2
   51387   51396   51390       2   51381   51390   51396       2   51378   51369
   51381       2   51378   51387   51396       2   51372   51378   51387       2
   51369   51378   51372       2   51369   51378   51387       2   51369   51381
   51390       2   51363   51372   51378       2   51360   51345   51363       2
   51360   51369   51378       2   51360   51369   51381       2   51348   51360
   51369       2   51345   51360   51348       2   51345   51360   51369       2
   51345   51363   51372       2   51339   51324   51345       2   51327   51348
   51360       2   51324   51309   51327       2   51324   51345   51360       2
   51324   51345   51363       2   51321   51339   51324       2   51318   51306
   51321       2   51312   51330   51318       2   51309   51324   51339       2
   51309   51324   51345       2   51309   51327   51348       2   51306   51300
   51309       2   51306   51318   51330       2   51306   51321   51339       2
   51303   51300   51306       2   51303   51300   51309       2   51303   51312
   51330       2   51300   51303   51312       2   51300   51306   51318       2
   51300   51306   51321       2   51300   51309   51324       2   51300   51309
   51327       2   51495   51504   51498       2   51489   51498   51504       2
   51486   51477   51489       2   51486   51495   51504       2   51480   51486
   51495       2   51477   51486   51480       2   51477   51486   51495       2
   51477   51489   51498       2   51471   51480   51486       2   51468   51453
   51471       2   51468   51477   51486       2   51468   51477   51489       2
   51456   51468   51477       2   51453   51468   51456       2   51453   51468
   51477       2   51453   51471   51480       2   51447   51432   51453       2
   51435   51456   51468       2   51432   51417   51435       2   51432   51453
   51468       2   51432   51453   51471       2   51429   51447   51432       2
   51426   51414   51429       2   51420   51438   51426       2   51417   51432
   51447       2   51417   51432   51453       2   51417   51435   51456       2
   51414   51408   51417       2   51414   51426   51438       2   51414   51429
   51447       2   51411   51408   51414       2   51411   51408   51417       2
   51411   51420   51438       2   51408   51411   51420       2   51408   51414
   51426       2   51408   51414   51429       2   51408   51417   51432       2
   51408   51417   51435       2   51603   51612   51606       2   51597   51606
   51612       2   51594   51585   51597       2   51594   51603   51612       2
   51588   51594   51603       2   51585   51594   51588       2   51585   51594
   51603       2   51585   51597   51606       2   51579   51588   51594       2
   51576   51561   51579       2   51576   51585   51594       2   51576   51585
   51597       2   51564   51576   51585       2   51561   51576   51564       2
   51561   51576   51585       2   51561   51579   51588       2   51555   51540
   51561       2   51543   51564   51576       2   51540   51525   51543       2
   51540   51561   51576       2   51540   51561   51579       2   51537   51555
   51540       2   51534   51522   51537       2   51528   51546   51534       2
   51525   51540   51555       2   51525   51540   51561       2   51525   51543
   51564       2   51522   51516   51525       2   51522   51534   51546       2
   51522   51537   51555       2   51519   51516   51522       2   51519   51516
   51525       2   51519   51528   51546       2   51516   51519   51528       2
   51516   51522   51534       2   51516   51522   51537       2   51516   51525
   51540       2   51516   51525   51543       2   51711   51720   51714       2
   51705   51714   51720       2   51702   51693   51705       2   51702   51711
   51720       2   51696   51702   51711       2   51693   51702   51696       2
   51693   51702   51711       2   51693   51705   51714       2   51687   51696
   51702       2   51684   51669   51687       2   51684   51693   51702       2
   51684   51693   51705       2   51672   51684   51693       2   51669   51684
   51672       2   51669   51684   51693       2   51669   51687   51696       2
   51663   51648   51669       2   51651   51672   51684       2   51648   51633
   51651       2   51648   51669   51684       2   51648   51669   51687       2
   51645   51663   51648       2   51642   51630   51645       2   51636   51654
   51642       2   51633   51648   51663       2   51633   51648   51669       2
   51633   51651   51672       2   51630   51624   51633       2   51630   51642
   51654       2   51630   51645   51663       2   51627   51624   51630       2
   51627   51624   51633       2   51627   51636   51654       2   51624   51627
   51636       2   51624   51630   51642       2   51624   51630   51645       2
   51624   51633   51648       2   51624   51633   51651       2   51819   51828
   51822       2   51813   51822   51828       2   51810   51801   51813       2
   51810   51819   51828       2   51804   51810   51819       2   51801   51810
   51804       2   51801   51810   51819       2   51801   51813   51822       2
   51795   51804   51810       2   51792   51777   51795       2   51792   51801
   51810       2   51792   51801   51813       2   51780   51792   51801       2
   51777   51792   51780       2   51777   51792   51801       2   51777   51795
   51804       2   51771   51756   51777       2   51759   51780   51792       2
   51756   51741   51759       2   51756   51777   51792       2   51756   51777
   51795       2   51753   51771   51756       2   51750   51738   51753       2
   51744   51762   51750       2   51741   51756   51771       2   51741   51756
   51777       2   51741   51759   51780       2   51738   51732   51741       2
   51738   51750   51762       2   51738   51753   51771       2   51735   51732
   51738       2   51735   51732   51741       2   51735   51744   51762       2
   51732   51735   51744       2   51732   51738   51750       2   51732   51738
   51753       2   51732   51741   51756       2   51732   51741   51759       2
   51927   51936   51930       2   51921   51930   51936       2   51918   51909
   51921       2   51918   51927   51936       2   51912   51918   51927       2
   51909   51918   51912       2   51909   51918   51927       2   51909   51921
   51930       2   51903   51912   51918       2   51900   51885   51903       2
   51900   51909   51918       2   51900   51909   51921       2   51888   51900
   51909       2   51885   51900   51888       2   51885   51900   51909       2
   51885   51903   51912       2   51879   51864   51885       2   51867   51888
   51900       2   51864   51849   51867       2   51864   51885   51900       2
   51864   51885   51903       2   51861   51879   51864       2   51858   51846
   51861       2   51852   51870   51858       2   51849   51864   51879       2
   51849   51864   51885       2   51849   51867   51888       2   51846   51840
   51849       2   51846   51858   51870       2   51846   51861   51879       2
   51843   51840   51846       2   51843   51840   51849       2   51843   51852
   51870       2   51840   51843   51852       2   51840   51846   51858       2
   51840   51846   51861       2   51840   51849   51864       2   51840   51849
   51867       2   52035   52044   52038       2   52029   52038   52044       2
   52026   52017   52029       2   52026   52035   52044       2   52020   52026
   52035       2   52017   52026   52020       2   52017   52026   52035       2
   52017   52029   52038       2   52011   52020   52026       2   52008   51993
   52011       2   52008   52017   52026       2   52008   52017   52029       2
   51996   52008   52017       2   51993   52008   51996       2   51993   52008
   52017       2   51993   52011   52020       2   51987   51972   51993       2
   51975   51996   52008       2   51972   51957   51975       2   51972   51993
   52008       2   51972   51993   52011       2   51969   51987   51972       2
   51966   51954   51969       2   51960   51978   51966       2   51957   51972
   51987       2   51957   51972   51993       2   51957   51975   51996       2
   51954   51948   51957       2   51954   51966   51978       2   51954   51969
   51987       2   51951   51948   51954       2   51951   51948   51957       2
   51951   51960   51978       2   51948   51951   51960       2   51948   51954
   51966       2   51948   51954   51969       2   51948   51957   51972       2
   51948   51957   51975       2   52143   52152   52146       2   52137   52146
   52152       2   52134   52125   52137       2   52134   52143   52152       2
   52128   52134   52143       2   52125   52134   52128       2   52125   52134
   52143       2   52125   52137   52146       2   52119   52128   52134       2
   52116   52101   52119       2   52116   52125   52134       2   52116   52125
   52137       2   52104   52116   52125       2   52101   52116   52104       2
   52101   52116   52125       2   52101   52119   52128       2   52095   52080
   52101       2   52083   52104   52116       2   52080   52065   52083       2
   52080   52101   52116       2   52080   52101   52119       2   52077   52095
   52080       2   52074   52062   52077       2   52068   52086   52074       2
   52065   52080   52095       2   52065   52080   52101       2   52065   52083
   52104       2   52062   52056   52065       2   52062   52074   52086       2
   52062   52077   52095       2   52059   52056   52062       2   52059   52056
   52065       2   52059   52068   52086       2   52056   52059   52068       2
   52056   52062   52074       2   52056   52062   52077       2   52056   52065
   52080       2   52056   52065   52083       2   52251   52260   52254       2
   52245   52254   52260       2   52242   52233   52245       2   52242   52251
   52260       2   52236   52242   52251       2   52233   52242   52236       2
   52233   52242   52251       2   52233   52245   52254       2   52227   52236
   52242       2   52224   52209   52227       2   52224   52233   52242       2
   52224   52233   52245       2   52212   52224   52233       2   52209   52224
   52212       2   52209   52224   52233       2   52209   52227   52236       2
   52203   52188   52209       2   52191   52212   52224       2   52188   52173
   52191       2   52188   52209   52224       2   52188   52209   52227       2
   52185   52203   52188       2   52182   52170   52185       2   52176   52194
   52182       2   52173   52188   52203       2   52173   52188   52209       2
   52173   52191   52212       2   52170   52164   52173       2   52170   52182
   52194       2   52170   52185   52203       2   52167   52164   52170       2
   52167   52164   52173       2   52167   52176   52194       2   52164   52167
   52176       2   52164   52170   52182       2   52164   52170   52185       2
   52164   52173   52188       2   52164   52173   52191       2   52359   52368
   52362       2   52353   52362   52368       2   52350   52341   52353       2
   52350   52359   52368       2   52344   52350   52359       2   52341   52350
   52344       2   52341   52350   52359       2   52341   52353   52362       2
   52335   52344   52350       2   52332   52317   52335       2   52332   52341
   52350       2   52332   52341   52353       2   52320   52332   52341       2
   52317   52332   52320       2   52317   52332   52341       2   52317   52335
   52344       2   52311   52296   52317       2   52299   52320   52332       2
   52296   52281   52299       2   52296   52317   52332       2   52296   52317
   52335       2   52293   52311   52296       2   52290   52278   52293       2
   52284   52302   52290       2   52281   52296   52311       2   52281   52296
   52317       2   52281   52299   52320       2   52278   52272   52281       2
   52278   52290   52302       2   52278   52293   52311       2   52275   52272
   52278       2   52275   52272   52281       2   52275   52284   52302       2
   52272   52275   52284       2   52272   52278   52290       2   52272   52278
   52293       2   52272   52281   52296       2   52272   52281   52299       2
   52467   52476   52470       2   52461   52470   52476       2   52458   52449
   52461       2   52458   52467   52476       2   52452   52458   52467       2
   52449   52458   52452       2   52449   52458   52467       2   52449   52461
   52470       2   52443   52452   52458       2   52440   52425   52443       2
   52440   52449   52458       2   52440   52449   52461       2   52428   52440
   52449       2   52425   52440   52428       2   52425   52440   52449       2
   52425   52443   52452       2   52419   52404   52425       2   52407   52428
   52440       2   52404   52389   52407       2   52404   52425   52440       2
   52404   52425   52443       2   52401   52419   52404       2   52398   52386
   52401       2   52392   52410   52398       2   52389   52404   52419       2
   52389   52404   52425       2   52389   52407   52428       2   52386   52380
   52389       2   52386   52398   52410       2   52386   52401   52419       2
   52383   52380   52386       2   52383   52380   52389       2   52383   52392
   52410       2   52380   52383   52392       2   52380   52386   52398       2
   52380   52386   52401       2   52380   52389   52404       2   52380   52389
   52407       2   52575   52584   52578       2   52569   52578   52584       2
   52566   52557   52569       2   52566   52575   52584       2   52560   52566
   52575       2   52557   52566   52560       2   52557   52566   52575       2
   52557   52569   52578       2   52551   52560   52566       2   52548   52533
   52551       2   52548   52557   52566       2   52548   52557   52569       2
   52536   52548   52557       2   52533   52548   52536       2   52533   52548
   52557       2   52533   52551   52560       2   52527   52512   52533       2
   52515   52536   52548       2   52512   52497   52515       2   52512   52533
   52548       2   52512   52533   52551       2   52509   52527   52512       2
   52506   52494   52509       2   52500   52518   52506       2   52497   52512
   52527       2   52497   52512   52533       2   52497   52515   52536       2
   52494   52488   52497       2   52494   52506   52518       2   52494   52509
   52527       2   52491   52488   52494       2   52491   52488   52497       2
   52491   52500   52518       2   52488   52491   52500       2   52488   52494
   52506       2   52488   52494   52509       2   52488   52497   52512       2
   52488   52497   52515       2   52683   52692   52686       2   52677   52686
   52692       2   52674   52665   52677       2   52674   52683   52692       2
   52668   52674   52683       2   52665   52674   52668       2   52665   52674
   52683       2   52665   52677   52686       2   52659   52668   52674       2
   52656   52641   52659       2   52656   52665   52674       2   52656   52665
   52677       2   52644   52656   52665       2   52641   52656   52644       2
   52641   52656   52665       2   52641   52659   52668       2   52635   52620
   52641       2   52623   52644   52656       2   52620   52605   52623       2
   52620   52641   52656       2   52620   52641   52659       2   52617   52635
   52620       2   52614   52602   52617       2   52608   52626   52614       2
   52605   52620   52635       2   52605   52620   52641       2   52605   52623
   52644       2   52602   52596   52605       2   52602   52614   52626       2
   52602   52617   52635       2   52599   52596   52602       2   52599   52596
   52605       2   52599   52608   52626       2   52596   52599   52608       2
   52596   52602   52614       2   52596   52602   52617       2   52596   52605
   52620       2   52596   52605   52623       2   52791   52800   52794       2
   52785   52794   52800       2   52782   52773   52785       2   52782   52791
   52800       2   52776   52782   52791       2   52773   52782   52776       2
   52773   52782   52791       2   52773   52785   52794       2   52767   52776
   52782       2   52764   52749   52767       2   52764   52773   52782       2
   52764   52773   52785       2   52752   52764   52773       2   52749   52764
   52752       2   52749   52764   52773       2   52749   52767   52776       2
   52743   52728   52749       2   52731   52752   52764       2   52728   52713
   52731       2   52728   52749   52764       2   52728   52749   52767       2
   52725   52743   52728       2   52722   52710   52725       2   52716   52734
   52722       2   52713   52728   52743       2   52713   52728   52749       2
   52713   52731   52752       2   52710   52704   52713       2   52710   52722
   52734       2   52710   52725   52743       2   52707   52704   52710       2
   52707   52704   52713       2   52707   52716   52734       2   52704   52707
   52716       2   52704   52710   52722       2   52704   52710   52725       2
   52704   52713   52728       2   52704   52713   52731       2   52899   52908
   52902       2   52893   52902   52908       2   52890   52881   52893       2
   52890   52899   52908       2   52884   52890   52899       2   52881   52890
   52884       2   52881   52890   52899       2   52881   52893   52902       2
   52875   52884   52890       2   52872   52857   52875       2   52872   52881
   52890       2   52872   52881   52893       2   52860   52872   52881       2
   52857   52872   52860       2   52857   52872   52881       2   52857   52875
   52884       2   52851   52836   52857       2   52839   52860   52872       2
   52836   52821   52839       2   52836   52857   52872       2   52836   52857
   52875       2   52833   52851   52836       2   52830   52818   52833       2
   52824   52842   52830       2   52821   52836   52851       2   52821   52836
   52857       2   52821   52839   52860       2   52818   52812   52821       2
   52818   52830   52842       2   52818   52833   52851       2   52815   52812
   52818       2   52815   52812   52821       2   52815   52824   52842       2
   52812   52815   52824       2   52812   52818   52830       2   52812   52818
   52833       2   52812   52821   52836       2   52812   52821   52839       2
%FLAG DIHEDRALS_INC_HYDROGEN
%FORMAT(10I8)
     102      90      96     105       1      99      87      96     105       1
      93      81      90      96       1      93      81      90     102       1
      90      96      87      99       1      87      96      90     102       1
      84      72      78      87       1      81      90      96     105       1
      78      69      81      93       1      78      87      96     105       1
      75      63      72      78       1      75      63      72      84       1
      72      78      87      99       1      69      78      72      84       1
      69      78      87      99       1      69      81      90     102       1
      66      48      60      69       1      60      45      63      75       1
      60      69      81      93       1      51      27      48      60       1
      51      27      48      66       1      45      24      39      57       1
      45      60      48      66       1      45      63      72      84       1
      42      21      39      57       1      36      18      30      54       1
      33      12      30      54       1      24       9      27      51       1
      24      39      21      42       1      24      45      63      75       1
      21       6      18      36       1      18       6      21      42       1
      18      30      12      33       1      15       3      12      30       1
      15       3      12      33       1      12      30      18      36       1
       9       0       3      15       1       9      24      39      57       1
       9      27      48      66       1       6       0       3      15       1
       6      18      30      54       1       6      21      39      57       1
       3      12      30      54       1       0       3      12      33       1
       0       6      18      36       1       0       6      21      42       1
       0       9      27      51       1     210     198     204     213       1
     207     195     204     213       1     201     189     198     204       1
     201     189     198     210       1     198     204     195     207       1
     195     204     198     210       1     192     180     186     195       1
     189     198     204     213       1     186     177     189     201       1
     186     195     204     213       1     183     171     180     186       1
     183     171     180     192       1     180     186     195     207       1
     177     186     180     192       1     177     186     195     207       1
     177     189     198     210       1     174     156     168     177       1
     168     153     171     183       1     168     177     189     201       1
     159     135     156     168       1     159     135     156     174       1
     153     132     147     165       1     153     168     156     174       1
     153     171     180     192       1     150     129     147     165       1
     144     126     138     162       1     141     120     138     162       1
     132     117     135     159       1     132     147     129     150       1
     132     153     171     183       1     129     114     126     144       1
     126     114     129     150       1     126     138     120     141       1
     123     111     120     138       1     123     111     120     141       1
     120     138     126     144       1     117     108     111     123       1
     117     132     147     165       1     117     135     156     174       1
     114     108     111     123       1     114     126     138     162       1
     114     129     147     165       1     111     120     138     162       1
     108     111     120     141       1     108     114     126     144       1
     108     114     129     150       1     108     117     135     159       1
     318     306     312     321       1     315     303     312     321       1
     309     297     306     312       1     309     297     306     318       1
     306     312     303     315       1     303     312     306     318       1
     300     288     294     303       1     297     306     312     321       1
     294     285     297     309       1     294     303     312     321       1
     291     279     288     294       1     291     279     288     300       1
     288     294     303     315       1     285     294     288     300       1
     285     294     303     315       1     285     297     306     318       1
     282     264     276     285       1     276     261     279     291       1
     276     285     297     309       1     267     243     264     276       1
     267     243     264     282       1     261     240     255     273       1
     261     276     264     282       1     261     279     288     300       1
     258     237     255     273       1     252     234     246     270       1
     249     228     246     270       1     240     225     243     267       1
     240     255     237     258       1     240     261     279     291       1
     237     222     234     252       1     234     222     237     258       1
     234     246     228     249       1     231     219     228     246       1
     231     219     228     249       1     228     246     234     252       1
     225     216     219     231       1     225     240     255     273       1
     225     243     264     282       1     222     216     219     231       1
     222     234     246     270       1     222     237     255     273       1
     219     228     246     270       1     216     219     228     249       1
     216     222     234     252       1     216     222     237     258       1
     216     225     243     267       1     426     414     420     429       1
     423     411     420     429       1     417     405     414     420       1
     417     405     414     426       1     414     420     411     423       1
     411     420     414     426       1     408     396     402     411       1
     405     414     420     429       1     402     393     405     417       1
     402     411     420     429       1     399     387     396     402       1
     399     387     396     408       1     396     402     411     423       1
     393     402     396     408       1     393     402     411     423       1
     393     405     414     426       1     390     372     384     393       1
     384     369     387     399       1     384     393     405     417       1
     375     351     372     384       1     375     351     372     390       1
     369     348     363     381       1     369     384     372     390       1
     369     387     396     408       1     366     345     363     381       1
     360     342     354     378       1     357     336     354     378       1
     348     333     351     375       1     348     363     345     366       1
     348     369     387     399       1     345     330     342     360       1
     342     330     345     366       1     342     354     336     357       1
     339     327     336     354       1     339     327     336     357       1
     336     354     342     360       1     333     324     327     339       1
     333     348     363     381       1     333     351     372     390       1
     330     324     327     339       1     330     342     354     378       1
     330     345     363     381       1     327     336     354     378       1
     324     327     336     357       1     324     330     342     360       1
     324     330     345     366       1     324     333     351     375       1
     534     522     528     537       1     531     519     528     537       1
     525     513     522     528       1     525     513     522     534       1
     522     528     519     531       1     519     528     522     534       1
     516     504     510     519       1     513     522     528     537       1
     510     501     513     525       1     510     519     528     537       1
     507     495     504     510       1     507     495     504     516       1
     504     510     519     531       1     501     510     504     516       1
     501     510     519     531       1     501     513     522     534       1
     498     480     492     501       1     492     477     495     507       1
     492     501     513     525       1     483     459     480     492       1
     483     459     480     498       1     477     456     471     489       1
     477     492     480     498       1     477     495     504     516       1
     474     453     471     489       1     468     450     462     486       1
     465     444     462     486       1     456     441     459     483       1
     456     471     453     474       1     456     477     495     507       1
     453     438     450     468       1     450     438     453     474       1
     450     462     444     465       1     447     435     444     462       1
     447     435     444     465       1     444     462     450     468       1
     441     432     435     447       1     441     456     471     489       1
     441     459     480     498       1     438     432     435     447       1
     438     450     462     486       1     438     453     471     489       1
     435     444     462     486       1     432     435     444     465       1
     432     438     450     468       1     432     438     453     474       1
     432     441     459     483       1     642     630     636     645       1
     639     627     636     645       1     633     621     630     636       1
     633     621     630     642       1     630     636     627     639       1
     627     636     630     642       1     624     612     618     627       1
     621     630     636     645       1     618     609     621     633       1
     618     627     636     645       1     615     603     612     618       1
     615     603     612     624       1     612     618     627     639       1
     609     618     612     624       1     609     618     627     639       1
     609     621     630     642       1     606     588     600     609       1
     600     585     603     615       1     600     609     621     633       1
     591     567     588     600       1     591     567     588     606       1
     585     564     579     597       1     585     600     588     606       1
     585     603     612     624       1     582     561     579     597       1
     576     558     570     594       1     573     552     570     594       1
     564     549     567     591       1     564     579     561     582       1
     564     585     603     615       1     561     546     558     576       1
     558     546     561     582       1     558     570     552     573       1
     555     543     552     570       1     555     543     552     573       1
     552     570     558     576       1     549     540     543     555       1
     549     564     579     597       1     549     567     588     606       1
     546     540     543     555       1     546     558     570     594       1
     546     561     579     597       1     543     552     570     594       1
     540     543     552     573       1     540     546     558     576       1
     540     546     561     582       1     540     549     567     591       1
     750     738     744     753       1     747     735     744     753       1
     741     729     738     744       1     741     729     738     750       1
     738     744     735     747       1     735     744     738     750       1
     732     720     726     735       1     729     738     744     753       1
     726     717     729     741       1     726     735     744     753       1
     723     711     720     726       1     723     711     720     732       1
     720     726     735     747       1     717     726     720     732       1
     717     726     735     747       1     717     729     738     750       1
     714     696     708     717       1     708     693     711     723       1
     708     717     729     741       1     699     675     696     708       1
     699     675     696     714       1     693     672     687     705       1
     693     708     696     714       1     693     711     720     732       1
     690     669     687     705       1     684     666     678     702       1
     681     660     678     702       1     672     657     675     699       1
     672     687     669     690       1     672     693     711     723       1
     669     654     666     684       1     666     654     669     690       1
     666     678     660     681       1     663     651     660     678       1
     663     651     660     681       1     660     678     666     684       1
     657     648     651     663       1     657     672     687     705       1
     657     675     696     714       1     654     648     651     663       1
     654     666     678     702       1     654     669     687     705       1
     651     660     678     702       1     648     651     660     681       1
     648     654     666     684       1     648     654     669     690       1
     648     657     675     699       1     858     846     852     861       1
     855     843     852     861       1     849     837     846     852       1
     849     837     846     858       1     846     852     843     855       1
     843     852     846     858       1     840     828     834     843       1
     837     846     852     861       1     834     825     837     849       1
     834     843     852     861       1     831     819     828     834       1
     831     819     828     840       1     828     834     843     855       1
     825     834     828     840       1     825     834     843     855       1
     825     837     846     858       1     822     804     816     825       1
     816     801     819     831       1     816     825     837     849       1
     807     783     804     816       1     807     783     804     822       1
     801     780     795     813       1     801     816     804     822       1
     801     819     828     840       1     798     777     795     813       1
     792     774     786     810       1     789     768     786     810       1
     780     765     783     807       1     780     795     777     798       1
     780     801     819     831       1     777     762     774     792       1
     774     762     777     798       1     774     786     768     789       1
     771     759     768     786       1     771     759     768     789       1
     768     786     774     792       1     765     756     759     771       1
     765     780     795     813       1     765     783     804     822       1
     762     756     759     771       1     762     774     786     810       1
     762     777     795     813       1     759     768     786     810       1
     756     759     768     789       1     756     762     774     792       1
     756     762     777     798       1     756     765     783     807       1
     966     954     960     969       1     963     951     960     969       1
     957     945     954     960       1     957     945     954     966       1
     954     960     951     963       1     951     960     954     966       1
     948     936     942     951       1     945     954     960     969       1
     942     933     945     957       1     942     951     960     969       1
     939     927     936     942       1     939     927     936     948       1
     936     942     951     963       1     933     942     936     948       1
     933     942     951     963       1     933     945     954     966       1
     930     912     924     933       1     924     909     927     939       1
     924     933     945     957       1     915     891     912     924       1
     915     891     912     930       1     909     888     903     921       1
     909     924     912     930       1     909     927     936     948       1
     906     885     903     921       1     900     882     894     918       1
     897     876     894     918       1     888     873     891     915       1
     888     903     885     906       1     888     909     927     939       1
     885     870     882     900       1     882     870     885     906       1
     882     894     876     897       1     879     867     876     894       1
     879     867     876     897       1     876     894     882     900       1
     873     864     867     879       1     873     888     903     921       1
     873     891     912     930       1     870     864     867     879       1
     870     882     894     918       1     870     885     903     921       1
     867     876     894     918       1     864     867     876     897       1
     864     870     882     900       1     864     870     885     906       1
     864     873     891     915       1    1074    1062    1068    1077       1
    1071    1059    1068    1077       1    1065    1053    1062    1068       1
    1065    1053    1062    1074       1    1062    1068    1059    1071       1
    1059    1068    1062    1074       1    1056    1044    1050    1059       1
    1053    1062    1068    1077       1    1050    1041    1053    1065       1
    1050    1059    1068    1077       1    1047    1035    1044    1050       1
    1047    1035    1044    1056       1    1044    1050    1059    1071       1
    1041    1050    1044    1056       1    1041    1050    1059    1071       1
    1041    1053    1062    1074       1    1038    1020    1032    1041       1
    1032    1017    1035    1047       1    1032    1041    1053    1065       1
    1023     999    1020    1032       1    1023     999    1020    1038       1
    1017     996    1011    1029       1    1017    1032    1020    1038       1
    1017    1035    1044    1056       1    1014     993    1011    1029       1
    1008     990    1002    1026       1    1005     984    1002    1026       1
     996     981     999    1023       1     996    1011     993    1014       1
     996    1017    1035    1047       1     993     978     990    1008       1
     990     978     993    1014       1     990    1002     984    1005       1
     987     975     984    1002       1     987     975     984    1005       1
     984    1002     990    1008       1     981     972     975     987       1
     981     996    1011    1029       1     981     999    1020    1038       1
     978     972     975     987       1     978     990    1002    1026       1
     978     993    1011    1029       1     975     984    1002    1026       1
     972     975     984    1005       1     972     978     990    1008       1
     972     978     993    1014       1     972     981     999    1023       1
    1182    1170    1176    1185       1    1179    1167    1176    1185       1
    1173    1161    1170    1176       1    1173    1161    1170    1182       1
    1170    1176    1167    1179       1    1167    1176    1170    1182       1
    1164    1152    1158    1167       1    1161    1170    1176    1185       1
    1158    1149    1161    1173       1    1158    1167    1176    1185       1
    1155    1143    1152    1158       1    1155    1143    1152    1164       1
    1152    1158    1167    1179       1    1149    1158    1152    1164       1
    1149    1158    1167    1179       1    1149    1161    1170    1182       1
    1146    1128    1140    1149       1    1140    1125    1143    1155       1
    1140    1149    1161    1173       1    1131    1107    1128    1140       1
    1131    1107    1128    1146       1    1125    1104    1119    1137       1
    1125    1140    1128    1146       1    1125    1143    1152    1164       1
    1122    1101    1119    1137       1    1116    1098    1110    1134       1
    1113    1092    1110    1134       1    1104    1089    1107    1131       1
    1104    1119    1101    1122       1    1104    1125    1143    1155       1
    1101    1086    1098    1116       1    1098    1086    1101    1122       1
    1098    1110    1092    1113       1    1095    1083    1092    1110       1
    1095    1083    1092    1113       1    1092    1110    1098    1116       1
    1089    1080    1083    1095       1    1089    1104    1119    1137       1
    1089    1107    1128    1146       1    1086    1080    1083    1095       1
    1086    1098    1110    1134       1    1086    1101    1119    1137       1
    1083    1092    1110    1134       1    1080    1083    1092    1113       1
    1080    1086    1098    1116       1    1080    1086    1101    1122       1
    1080    1089    1107    1131       1    1290    1278    1284    1293       1
    1287    1275    1284    1293       1    1281    1269    1278    1284       1
    1281    1269    1278    1290       1    1278    1284    1275    1287       1
    1275    1284    1278    1290       1    1272    1260    1266    1275       1
    1269    1278    1284    1293       1    1266    1257    1269    1281       1
    1266    1275    1284    1293       1    1263    1251    1260    1266       1
    1263    1251    1260    1272       1    1260    1266    1275    1287       1
    1257    1266    1260    1272       1    1257    1266    1275    1287       1
    1257    1269    1278    1290       1    1254    1236    1248    1257       1
    1248    1233    1251    1263       1    1248    1257    1269    1281       1
    1239    1215    1236    1248       1    1239    1215    1236    1254       1
    1233    1212    1227    1245       1    1233    1248    1236    1254       1
    1233    1251    1260    1272       1    1230    1209    1227    1245       1
    1224    1206    1218    1242       1    1221    1200    1218    1242       1
    1212    1197    1215    1239       1    1212    1227    1209    1230       1
    1212    1233    1251    1263       1    1209    1194    1206    1224       1
    1206    1194    1209    1230       1    1206    1218    1200    1221       1
    1203    1191    1200    1218       1    1203    1191    1200    1221       1
    1200    1218    1206    1224       1    1197    1188    1191    1203       1
    1197    1212    1227    1245       1    1197    1215    1236    1254       1
    1194    1188    1191    1203       1    1194    1206    1218    1242       1
    1194    1209    1227    1245       1    1191    1200    1218    1242       1
    1188    1191    1200    1221       1    1188    1194    1206    1224       1
    1188    1194    1209    1230       1    1188    1197    1215    1239       1
    1398    1386    1392    1401       1    1395    1383    1392    1401       1
    1389    1377    1386    1392       1    1389    1377    1386    1398       1
    1386    1392    1383    1395       1    1383    1392    1386    1398       1
    1380    1368    1374    1383       1    1377    1386    1392    1401       1
    1374    1365    1377    1389       1    1374    1383    1392    1401       1
    1371    1359    1368    1374       1    1371    1359    1368    1380       1
    1368    1374    1383    1395       1    1365    1374    1368    1380       1
    1365    1374    1383    1395       1    1365    1377    1386    1398       1
    1362    1344    1356    1365       1    1356    1341    1359    1371       1
    1356    1365    1377    1389       1    1347    1323    1344    1356       1
    1347    1323    1344    1362       1    1341    1320    1335    1353       1
    1341    1356    1344    1362       1    1341    1359    1368    1380       1
    1338    1317    1335    1353       1    1332    1314    1326    1350       1
    1329    1308    1326    1350       1    1320    1305    1323    1347       1
    1320    1335    1317    1338       1    1320    1341    1359    1371       1
    1317    1302    1314    1332       1    1314    1302    1317    1338       1
    1314    1326    1308    1329       1    1311    1299    1308    1326       1
    1311    1299    1308    1329       1    1308    1326    1314    1332       1
    1305    1296    1299    1311       1    1305    1320    1335    1353       1
    1305    1323    1344    1362       1    1302    1296    1299    1311       1
    1302    1314    1326    1350       1    1302    1317    1335    1353       1
    1299    1308    1326    1350       1    1296    1299    1308    1329       1
    1296    1302    1314    1332       1    1296    1302    1317    1338       1
    1296    1305    1323    1347       1    1506    1494    1500    1509       1
    1503    1491    1500    1509       1    1497    1485    1494    1500       1
    1497    1485    1494    1506       1    1494    1500    1491    1503       1
    1491    1500    1494    1506       1    1488    1476    1482    1491       1
    1485    1494    1500    1509       1    1482    1473    1485    1497       1
    1482    1491    1500    1509       1    1479    1467    1476    1482       1
    1479    1467    1476    1488       1    1476    1482    1491    1503       1
    1473    1482    1476    1488       1    1473    1482    1491    1503       1
    1473    1485    1494    1506       1    1470    1452    1464    1473       1
    1464    1449    1467    1479       1    1464    1473    1485    1497       1
    1455    1431    1452    1464       1    1455    1431    1452    1470       1
    1449    1428    1443    1461       1    1449    1464    1452    1470       1
    1449    1467    1476    1488       1    1446    1425    1443    1461       1
    1440    1422    1434    1458       1    1437    1416    1434    1458       1
    1428    1413    1431    1455       1    1428    1443    1425    1446       1
    1428    1449    1467    1479       1    1425    1410    1422    1440       1
    1422    1410    1425    1446       1    1422    1434    1416    1437       1
    1419    1407    1416    1434       1    1419    1407    1416    1437       1
    1416    1434    1422    1440       1    1413    1404    1407    1419       1
    1413    1428    1443    1461       1    1413    1431    1452    1470       1
    1410    1404    1407    1419       1    1410    1422    1434    1458       1
    1410    1425    1443    1461       1    1407    1416    1434    1458       1
    1404    1407    1416    1437       1    1404    1410    1422    1440       1
    1404    1410    1425    1446       1    1404    1413    1431    1455       1
    1614    1602    1608    1617       1    1611    1599    1608    1617       1
    1605    1593    1602    1608       1    1605    1593    1602    1614       1
    1602    1608    1599    1611       1    1599    1608    1602    1614       1
    1596    1584    1590    1599       1    1593    1602    1608    1617       1
    1590    1581    1593    1605       1    1590    1599    1608    1617       1
    1587    1575    1584    1590       1    1587    1575    1584    1596       1
    1584    1590    1599    1611       1    1581    1590    1584    1596       1
    1581    1590    1599    1611       1    1581    1593    1602    1614       1
    1578    1560    1572    1581       1    1572    1557    1575    1587       1
    1572    1581    1593    1605       1    1563    1539    1560    1572       1
    1563    1539    1560    1578       1    1557    1536    1551    1569       1
    1557    1572    1560    1578       1    1557    1575    1584    1596       1
    1554    1533    1551    1569       1    1548    1530    1542    1566       1
    1545    1524    1542    1566       1    1536    1521    1539    1563       1
    1536    1551    1533    1554       1    1536    1557    1575    1587       1
    1533    1518    1530    1548       1    1530    1518    1533    1554       1
    1530    1542    1524    1545       1    1527    1515    1524    1542       1
    1527    1515    1524    1545       1    1524    1542    1530    1548       1
    1521    1512    1515    1527       1    1521    1536    1551    1569       1
    1521    1539    1560    1578       1    1518    1512    1515    1527       1
    1518    1530    1542    1566       1    1518    1533    1551    1569       1
    1515    1524    1542    1566       1    1512    1515    1524    1545       1
    1512    1518    1530    1548       1    1512    1518    1533    1554       1
    1512    1521    1539    1563       1    1722    1710    1716    1725       1
    1719    1707    1716    1725       1    1713    1701    1710    1716       1
    1713    1701    1710    1722       1    1710    1716    1707    1719       1
    1707    1716    1710    1722       1    1704    1692    1698    1707       1
    1701    1710    1716    1725       1    1698    1689    1701    1713       1
    1698    1707    1716    1725       1    1695    1683    1692    1698       1
    1695    1683    1692    1704       1    1692    1698    1707    1719       1
    1689    1698    1692    1704       1    1689    1698    1707    1719       1
    1689    1701    1710    1722       1    1686    1668    1680    1689       1
    1680    1665    1683    1695       1    1680    1689    1701    1713       1
    1671    1647    1668    1680       1    1671    1647    1668    1686       1
    1665    1644    1659    1677       1    1665    1680    1668    1686       1
    1665    1683    1692    1704       1    1662    1641    1659    1677       1
    1656    1638    1650    1674       1    1653    1632    1650    1674       1
    1644    1629    1647    1671       1    1644    1659    1641    1662       1
    1644    1665    1683    1695       1    1641    1626    1638    1656       1
    1638    1626    1641    1662       1    1638    1650    1632    1653       1
    1635    1623    1632    1650       1    1635    1623    1632    1653       1
    1632    1650    1638    1656       1    1629    1620    1623    1635       1
    1629    1644    1659    1677       1    1629    1647    1668    1686       1
    1626    1620    1623    1635       1    1626    1638    1650    1674       1
    1626    1641    1659    1677       1    1623    1632    1650    1674       1
    1620    1623    1632    1653       1    1620    1626    1638    1656       1
    1620    1626    1641    1662       1    1620    1629    1647    1671       1
    1830    1818    1824    1833       1    1827    1815    1824    1833       1
    1821    1809    1818    1824       1    1821    1809    1818    1830       1
    1818    1824    1815    1827       1    1815    1824    1818    1830       1
    1812    1800    1806    1815       1    1809    1818    1824    1833       1
    1806    1797    1809    1821       1    1806    1815    1824    1833       1
    1803    1791    1800    1806       1    1803    1791    1800    1812       1
    1800    1806    1815    1827       1    1797    1806    1800    1812       1
    1797    1806    1815    1827       1    1797    1809    1818    1830       1
    1794    1776    1788    1797       1    1788    1773    1791    1803       1
    1788    1797    1809    1821       1    1779    1755    1776    1788       1
    1779    1755    1776    1794       1    1773    1752    1767    1785       1
    1773    1788    1776    1794       1    1773    1791    1800    1812       1
    1770    1749    1767    1785       1    1764    1746    1758    1782       1
    1761    1740    1758    1782       1    1752    1737    1755    1779       1
    1752    1767    1749    1770       1    1752    1773    1791    1803       1
    1749    1734    1746    1764       1    1746    1734    1749    1770       1
    1746    1758    1740    1761       1    1743    1731    1740    1758       1
    1743    1731    1740    1761       1    1740    1758    1746    1764       1
    1737    1728    1731    1743       1    1737    1752    1767    1785       1
    1737    1755    1776    1794       1    1734    1728    1731    1743       1
    1734    1746    1758    1782       1    1734    1749    1767    1785       1
    1731    1740    1758    1782       1    1728    1731    1740    1761       1
    1728    1734    1746    1764       1    1728    1734    1749    1770       1
    1728    1737    1755    1779       1    1938    1926    1932    1941       1
    1935    1923    1932    1941       1    1929    1917    1926    1932       1
    1929    1917    1926    1938       1    1926    1932    1923    1935       1
    1923    1932    1926    1938       1    1920    1908    1914    1923       1
    1917    1926    1932    1941       1    1914    1905    1917    1929       1
    1914    1923    1932    1941       1    1911    1899    1908    1914       1
    1911    1899    1908    1920       1    1908    1914    1923    1935       1
    1905    1914    1908    1920       1    1905    1914    1923    1935       1
    1905    1917    1926    1938       1    1902    1884    1896    1905       1
    1896    1881    1899    1911       1    1896    1905    1917    1929       1
    1887    1863    1884    1896       1    1887    1863    1884    1902       1
    1881    1860    1875    1893       1    1881    1896    1884    1902       1
    1881    1899    1908    1920       1    1878    1857    1875    1893       1
    1872    1854    1866    1890       1    1869    1848    1866    1890       1
    1860    1845    1863    1887       1    1860    1875    1857    1878       1
    1860    1881    1899    1911       1    1857    1842    1854    1872       1
    1854    1842    1857    1878       1    1854    1866    1848    1869       1
    1851    1839    1848    1866       1    1851    1839    1848    1869       1
    1848    1866    1854    1872       1    1845    1836    1839    1851       1
    1845    1860    1875    1893       1    1845    1863    1884    1902       1
    1842    1836    1839    1851       1    1842    1854    1866    1890       1
    1842    1857    1875    1893       1    1839    1848    1866    1890       1
    1836    1839    1848    1869       1    1836    1842    1854    1872       1
    1836    1842    1857    1878       1    1836    1845    1863    1887       1
    2046    2034    2040    2049       1    2043    2031    2040    2049       1
    2037    2025    2034    2040       1    2037    2025    2034    2046       1
    2034    2040    2031    2043       1    2031    2040    2034    2046       1
    2028    2016    2022    2031       1    2025    2034    2040    2049       1
    2022    2013    2025    2037       1    2022    2031    2040    2049       1
    2019    2007    2016    2022       1    2019    2007    2016    2028       1
    2016    2022    2031    2043       1    2013    2022    2016    2028       1
    2013    2022    2031    2043       1    2013    2025    2034    2046       1
    2010    1992    2004    2013       1    2004    1989    2007    2019       1
    2004    2013    2025    2037       1    1995    1971    1992    2004       1
    1995    1971    1992    2010       1    1989    1968    1983    2001       1
    1989    2004    1992    2010       1    1989    2007    2016    2028       1
    1986    1965    1983    2001       1    1980    1962    1974    1998       1
    1977    1956    1974    1998       1    1968    1953    1971    1995       1
    1968    1983    1965    1986       1    1968    1989    2007    2019       1
    1965    1950    1962    1980       1    1962    1950    1965    1986       1
    1962    1974    1956    1977       1    1959    1947    1956    1974       1
    1959    1947    1956    1977       1    1956    1974    1962    1980       1
    1953    1944    1947    1959       1    1953    1968    1983    2001       1
    1953    1971    1992    2010       1    1950    1944    1947    1959       1
    1950    1962    1974    1998       1    1950    1965    1983    2001       1
    1947    1956    1974    1998       1    1944    1947    1956    1977       1
    1944    1950    1962    1980       1    1944    1950    1965    1986       1
    1944    1953    1971    1995       1    2154    2142    2148    2157       1
    2151    2139    2148    2157       1    2145    2133    2142    2148       1
    2145    2133    2142    2154       1    2142    2148    2139    2151       1
    2139    2148    2142    2154       1    2136    2124    2130    2139       1
    2133    2142    2148    2157       1    2130    2121    2133    2145       1
    2130    2139    2148    2157       1    2127    2115    2124    2130       1
    2127    2115    2124    2136       1    2124    2130    2139    2151       1
    2121    2130    2124    2136       1    2121    2130    2139    2151       1
    2121    2133    2142    2154       1    2118    2100    2112    2121       1
    2112    2097    2115    2127       1    2112    2121    2133    2145       1
    2103    2079    2100    2112       1    2103    2079    2100    2118       1
    2097    2076    2091    2109       1    2097    2112    2100    2118       1
    2097    2115    2124    2136       1    2094    2073    2091    2109       1
    2088    2070    2082    2106       1    2085    2064    2082    2106       1
    2076    2061    2079    2103       1    2076    2091    2073    2094       1
    2076    2097    2115    2127       1    2073    2058    2070    2088       1
    2070    2058    2073    2094       1    2070    2082    2064    2085       1
    2067    2055    2064    2082       1    2067    2055    2064    2085       1
    2064    2082    2070    2088       1    2061    2052    2055    2067       1
    2061    2076    2091    2109       1    2061    2079    2100    2118       1
    2058    2052    2055    2067       1    2058    2070    2082    2106       1
    2058    2073    2091    2109       1    2055    2064    2082    2106       1
    2052    2055    2064    2085       1    2052    2058    2070    2088       1
    2052    2058    2073    2094       1    2052    2061    2079    2103       1
    2262    2250    2256    2265       1    2259    2247    2256    2265       1
    2253    2241    2250    2256       1    2253    2241    2250    2262       1
    2250    2256    2247    2259       1    2247    2256    2250    2262       1
    2244    2232    2238    2247       1    2241    2250    2256    2265       1
    2238    2229    2241    2253       1    2238    2247    2256    2265       1
    2235    2223    2232    2238       1    2235    2223    2232    2244       1
    2232    2238    2247    2259       1    2229    2238    2232    2244       1
    2229    2238    2247    2259       1    2229    2241    2250    2262       1
    2226    2208    2220    2229       1    2220    2205    2223    2235       1
    2220    2229    2241    2253       1    2211    2187    2208    2220       1
    2211    2187    2208    2226       1    2205    2184    2199    2217       1
    2205    2220    2208    2226       1    2205    2223    2232    2244       1
    2202    2181    2199    2217       1    2196    2178    2190    2214       1
    2193    2172    2190    2214       1    2184    2169    2187    2211       1
    2184    2199    2181    2202       1    2184    2205    2223    2235       1
    2181    2166    2178    2196       1    2178    2166    2181    2202       1
    2178    2190    2172    2193       1    2175    2163    2172    2190       1
    2175    2163    2172    2193       1    2172    2190    2178    2196       1
    2169    2160    2163    2175       1    2169    2184    2199    2217       1
    2169    2187    2208    2226       1    2166    2160    2163    2175       1
    2166    2178    2190    2214       1    2166    2181    2199    2217       1
    2163    2172    2190    2214       1    2160    2163    2172    2193       1
    2160    2166    2178    2196       1    2160    2166    2181    2202       1
    2160    2169    2187    2211       1    2370    2358    2364    2373       1
    2367    2355    2364    2373       1    2361    2349    2358    2364       1
    2361    2349    2358    2370       1    2358    2364    2355    2367       1
    2355    2364    2358    2370       1    2352    2340    2346    2355       1
    2349    2358    2364    2373       1    2346    2337    2349    2361       1
    2346    2355    2364    2373       1    2343    2331    2340    2346       1
    2343    2331    2340    2352       1    2340    2346    2355    2367       1
    2337    2346    2340    2352       1    2337    2346    2355    2367       1
    2337    2349    2358    2370       1    2334    2316    2328    2337       1
    2328    2313    2331    2343       1    2328    2337    2349    2361       1
    2319    2295    2316    2328       1    2319    2295    2316    2334       1
    2313    2292    2307    2325       1    2313    2328    2316    2334       1
    2313    2331    2340    2352       1    2310    2289    2307    2325       1
    2304    2286    2298    2322       1    2301    2280    2298    2322       1
    2292    2277    2295    2319       1    2292    2307    2289    2310       1
    2292    2313    2331    2343       1    2289    2274    2286    2304       1
    2286    2274    2289    2310       1    2286    2298    2280    2301       1
    2283    2271    2280    2298       1    2283    2271    2280    2301       1
    2280    2298    2286    2304       1    2277    2268    2271    2283       1
    2277    2292    2307    2325       1    2277    2295    2316    2334       1
    2274    2268    2271    2283       1    2274    2286    2298    2322       1
    2274    2289    2307    2325       1    2271    2280    2298    2322       1
    2268    2271    2280    2301       1    2268    2274    2286    2304       1
    2268    2274    2289    2310       1    2268    2277    2295    2319       1
    2478    2466    2472    2481       1    2475    2463    2472    2481       1
    2469    2457    2466    2472       1    2469    2457    2466    2478       1
    2466    2472    2463    2475       1    2463    2472    2466    2478       1
    2460    2448    2454    2463       1    2457    2466    2472    2481       1
    2454    2445    2457    2469       1    2454    2463    2472    2481       1
    2451    2439    2448    2454       1    2451    2439    2448    2460       1
    2448    2454    2463    2475       1    2445    2454    2448    2460       1
    2445    2454    2463    2475       1    2445    2457    2466    2478       1
    2442    2424    2436    2445       1    2436    2421    2439    2451       1
    2436    2445    2457    2469       1    2427    2403    2424    2436       1
    2427    2403    2424    2442       1    2421    2400    2415    2433       1
    2421    2436    2424    2442       1    2421    2439    2448    2460       1
    2418    2397    2415    2433       1    2412    2394    2406    2430       1
    2409    2388    2406    2430       1    2400    2385    2403    2427       1
    2400    2415    2397    2418       1    2400    2421    2439    2451       1
    2397    2382    2394    2412       1    2394    2382    2397    2418       1
    2394    2406    2388    2409       1    2391    2379    2388    2406       1
    2391    2379    2388    2409       1    2388    2406    2394    2412       1
    2385    2376    2379    2391       1    2385    2400    2415    2433       1
    2385    2403    2424    2442       1    2382    2376    2379    2391       1
    2382    2394    2406    2430       1    2382    2397    2415    2433       1
    2379    2388    2406    2430       1    2376    2379    2388    2409       1
    2376    2382    2394    2412       1    2376    2382    2397    2418       1
    2376    2385    2403    2427       1    2586    2574    2580    2589       1
    2583    2571    2580    2589       1    2577    2565    2574    2580       1
    2577    2565    2574    2586       1    2574    2580    2571    2583       1
    2571    2580    2574    2586       1    2568    2556    2562    2571       1
    2565    2574    2580    2589       1    2562    2553    2565    2577       1
    2562    2571    2580    2589       1    2559    2547    2556    2562       1
    2559    2547    2556    2568       1    2556    2562    2571    2583       1
    2553    2562    2556    2568       1    2553    2562    2571    2583       1
    2553    2565    2574    2586       1    2550    2532    2544    2553       1
    2544    2529    2547    2559       1    2544    2553    2565    2577       1
    2535    2511    2532    2544       1    2535    2511    2532    2550       1
    2529    2508    2523    2541       1    2529    2544    2532    2550       1
    2529    2547    2556    2568       1    2526    2505    2523    2541       1
    2520    2502    2514    2538       1    2517    2496    2514    2538       1
    2508    2493    2511    2535       1    2508    2523    2505    2526       1
    2508    2529    2547    2559       1    2505    2490    2502    2520       1
    2502    2490    2505    2526       1    2502    2514    2496    2517       1
    2499    2487    2496    2514       1    2499    2487    2496    2517       1
    2496    2514    2502    2520       1    2493    2484    2487    2499       1
    2493    2508    2523    2541       1    2493    2511    2532    2550       1
    2490    2484    2487    2499       1    2490    2502    2514    2538       1
    2490    2505    2523    2541       1    2487    2496    2514    2538       1
    2484    2487    2496    2517       1    2484    2490    2502    2520       1
    2484    2490    2505    2526       1    2484    2493    2511    2535       1
    2694    2682    2688    2697       1    2691    2679    2688    2697       1
    2685    2673    2682    2688       1    2685    2673    2682    2694       1
    2682    2688    2679    2691       1    2679    2688    2682    2694       1
    2676    2664    2670    2679       1    2673    2682    2688    2697       1
    2670    2661    2673    2685       1    2670    2679    2688    2697       1
    2667    2655    2664    2670       1    2667    2655    2664    2676       1
    2664    2670    2679    2691       1    2661    2670    2664    2676       1
    2661    2670    2679    2691       1    2661    2673    2682    2694       1
    2658    2640    2652    2661       1    2652    2637    2655    2667       1
    2652    2661    2673    2685       1    2643    2619    2640    2652       1
    2643    2619    2640    2658       1    2637    2616    2631    2649       1
    2637    2652    2640    2658       1    2637    2655    2664    2676       1
    2634    2613    2631    2649       1    2628    2610    2622    2646       1
    2625    2604    2622    2646       1    2616    2601    2619    2643       1
    2616    2631    2613    2634       1    2616    2637    2655    2667       1
    2613    2598    2610    2628       1    2610    2598    2613    2634       1
    2610    2622    2604    2625       1    2607    2595    2604    2622       1
    2607    2595    2604    2625       1    2604    2622    2610    2628       1
    2601    2592    2595    2607       1    2601    2616    2631    2649       1
    2601    2619    2640    2658       1    2598    2592    2595    2607       1
    2598    2610    2622    2646       1    2598    2613    2631    2649       1
    2595    2604    2622    2646       1    2592    2595    2604    2625       1
    2592    2598    2610    2628       1    2592    2598    2613    2634       1
    2592    2601    2619    2643       1    2802    2790    2796    2805       1
    2799    2787    2796    2805       1    2793    2781    2790    2796       1
    2793    2781    2790    2802       1    2790    2796    2787    2799       1
    2787    2796    2790    2802       1    2784    2772    2778    2787       1
    2781    2790    2796    2805       1    2778    2769    2781    2793       1
    2778    2787    2796    2805       1    2775    2763    2772    2778       1
    2775    2763    2772    2784       1    2772    2778    2787    2799       1
    2769    2778    2772    2784       1    2769    2778    2787    2799       1
    2769    2781    2790    2802       1    2766    2748    2760    2769       1
    2760    2745    2763    2775       1    2760    2769    2781    2793       1
    2751    2727    2748    2760       1    2751    2727    2748    2766       1
    2745    2724    2739    2757       1    2745    2760    2748    2766       1
    2745    2763    2772    2784       1    2742    2721    2739    2757       1
    2736    2718    2730    2754       1    2733    2712    2730    2754       1
    2724    2709    2727    2751       1    2724    2739    2721    2742       1
    2724    2745    2763    2775       1    2721    2706    2718    2736       1
    2718    2706    2721    2742       1    2718    2730    2712    2733       1
    2715    2703    2712    2730       1    2715    2703    2712    2733       1
    2712    2730    2718    2736       1    2709    2700    2703    2715       1
    2709    2724    2739    2757       1    2709    2727    2748    2766       1
    2706    2700    2703    2715       1    2706    2718    2730    2754       1
    2706    2721    2739    2757       1    2703    2712    2730    2754       1
    2700    2703    2712    2733       1    2700    2706    2718    2736       1
    2700    2706    2721    2742       1    2700    2709    2727    2751       1
    2910    2898    2904    2913       1    2907    2895    2904    2913       1
    2901    2889    2898    2904       1    2901    2889    2898    2910       1
    2898    2904    2895    2907       1    2895    2904    2898    2910       1
    2892    2880    2886    2895       1    2889    2898    2904    2913       1
    2886    2877    2889    2901       1    2886    2895    2904    2913       1
    2883    2871    2880    2886       1    2883    2871    2880    2892       1
    2880    2886    2895    2907       1    2877    2886    2880    2892       1
    2877    2886    2895    2907       1    2877    2889    2898    2910       1
    2874    2856    2868    2877       1    2868    2853    2871    2883       1
    2868    2877    2889    2901       1    2859    2835    2856    2868       1
    2859    2835    2856    2874       1    2853    2832    2847    2865       1
    2853    2868    2856    2874       1    2853    2871    2880    2892       1
    2850    2829    2847    2865       1    2844    2826    2838    2862       1
    2841    2820    2838    2862       1    2832    2817    2835    2859       1
    2832    2847    2829    2850       1    2832    2853    2871    2883       1
    2829    2814    2826    2844       1    2826    2814    2829    2850       1
    2826    2838    2820    2841       1    2823    2811    2820    2838       1
    2823    2811    2820    2841       1    2820    2838    2826    2844       1
    2817    2808    2811    2823       1    2817    2832    2847    2865       1
    2817    2835    2856    2874       1    2814    2808    2811    2823       1
    2814    2826    2838    2862       1    2814    2829    2847    2865       1
    2811    2820    2838    2862       1    2808    2811    2820    2841       1
    2808    2814    2826    2844       1    2808    2814    2829    2850       1
    2808    2817    2835    2859       1    3018    3006    3012    3021       1
    3015    3003    3012    3021       1    3009    2997    3006    3012       1
    3009    2997    3006    3018       1    3006    3012    3003    3015       1
    3003    3012    3006    3018       1    3000    2988    2994    3003       1
    2997    3006    3012    3021       1    2994    2985    2997    3009       1
    2994    3003    3012    3021       1    2991    2979    2988    2994       1
    2991    2979    2988    3000       1    2988    2994    3003    3015       1
    2985    2994    2988    3000       1    2985    2994    3003    3015       1
    2985    2997    3006    3018       1    2982    2964    2976    2985       1
    2976    2961    2979    2991       1    2976    2985    2997    3009       1
    2967    2943    2964    2976       1    2967    2943    2964    2982       1
    2961    2940    2955    2973       1    2961    2976    2964    2982       1
    2961    2979    2988    3000       1    2958    2937    2955    2973       1
    2952    2934    2946    2970       1    2949    2928    2946    2970       1
    2940    2925    2943    2967       1    2940    2955    2937    2958       1
    2940    2961    2979    2991       1    2937    2922    2934    2952       1
    2934    2922    2937    2958       1    2934    2946    2928    2949       1
    2931    2919    2928    2946       1    2931    2919    2928    2949       1
    2928    2946    2934    2952       1    2925    2916    2919    2931       1
    2925    2940    2955    2973       1    2925    2943    2964    2982       1
    2922    2916    2919    2931       1    2922    2934    2946    2970       1
    2922    2937    2955    2973       1    2919    2928    2946    2970       1
    2916    2919    2928    2949       1    2916    2922    2934    2952       1
    2916    2922    2937    2958       1    2916    2925    2943    2967       1
    3126    3114    3120    3129       1    3123    3111    3120    3129       1
    3117    3105    3114    3120       1    3117    3105    3114    3126       1
    3114    3120    3111    3123       1    3111    3120    3114    3126       1
    3108    3096    3102    3111       1    3105    3114    3120    3129       1
    3102    3093    3105    3117       1    3102    3111    3120    3129       1
    3099    3087    3096    3102       1    3099    3087    3096    3108       1
    3096    3102    3111    3123       1    3093    3102    3096    3108       1
    3093    3102    3111    3123       1    3093    3105    3114    3126       1
    3090    3072    3084    3093       1    3084    3069    3087    3099       1
    3084    3093    3105    3117       1    3075    3051    3072    3084       1
    3075    3051    3072    3090       1    3069    3048    3063    3081       1
    3069    3084    3072    3090       1    3069    3087    3096    3108       1
    3066    3045    3063    3081       1    3060    3042    3054    3078       1
    3057    3036    3054    3078       1    3048    3033    3051    3075       1
    3048    3063    3045    3066       1    3048    3069    3087    3099       1
    3045    3030    3042    3060       1    3042    3030    3045    3066       1
    3042    3054    3036    3057       1    3039    3027    3036    3054       1
    3039    3027    3036    3057       1    3036    3054    3042    3060       1
    3033    3024    3027    3039       1    3033    3048    3063    3081       1
    3033    3051    3072    3090       1    3030    3024    3027    3039       1
    3030    3042    3054    3078       1    3030    3045    3063    3081       1
    3027    3036    3054    3078       1    3024    3027    3036    3057       1
    3024    3030    3042    3060       1    3024    3030    3045    3066       1
    3024    3033    3051    3075       1    3234    3222    3228    3237       1
    3231    3219    3228    3237       1    3225    3213    3222    3228       1
    3225    3213    3222    3234       1    3222    3228    3219    3231       1
    3219    3228    3222    3234       1    3216    3204    3210    3219       1
    3213    3222    3228    3237       1    3210    3201    3213    3225       1
    3210    3219    3228    3237       1    3207    3195    3204    3210       1
    3207    3195    3204    3216       1    3204    3210    3219    3231       1
    3201    3210    3204    3216       1    3201    3210    3219    3231       1
    3201    3213    3222    3234       1    3198    3180    3192    3201       1
    3192    3177    3195    3207       1    3192    3201    3213    3225       1
    3183    3159    3180    3192       1    3183    3159    3180    3198       1
    3177    3156    3171    3189       1    3177    3192    3180    3198       1
    3177    3195    3204    3216       1    3174    3153    3171    3189       1
    3168    3150    3162    3186       1    3165    3144    3162    3186       1
    3156    3141    3159    3183       1    3156    3171    3153    3174       1
    3156    3177    3195    3207       1    3153    3138    3150    3168       1
    3150    3138    3153    3174       1    3150    3162    3144    3165       1
    3147    3135    3144    3162       1    3147    3135    3144    3165       1
    3144    3162    3150    3168       1    3141    3132    3135    3147       1
    3141    3156    3171    3189       1    3141    3159    3180    3198       1
    3138    3132    3135    3147       1    3138    3150    3162    3186       1
    3138    3153    3171    3189       1    3135    3144    3162    3186       1
    3132    3135    3144    3165       1    3132    3138    3150    3168       1
    3132    3138    3153    3174       1    3132    3141    3159    3183       1
    3342    3330    3336    3345       1    3339    3327    3336    3345       1
    3333    3321    3330    3336       1    3333    3321    3330    3342       1
    3330    3336    3327    3339       1    3327    3336    3330    3342       1
    3324    3312    3318    3327       1    3321    3330    3336    3345       1
    3318    3309    3321    3333       1    3318    3327    3336    3345       1
    3315    3303    3312    3318       1    3315    3303    3312    3324       1
    3312    3318    3327    3339       1    3309    3318    3312    3324       1
    3309    3318    3327    3339       1    3309    3321    3330    3342       1
    3306    3288    3300    3309       1    3300    3285    3303    3315       1
    3300    3309    3321    3333       1    3291    3267    3288    3300       1
    3291    3267    3288    3306       1    3285    3264    3279    3297       1
    3285    3300    3288    3306       1    3285    3303    3312    3324       1
    3282    3261    3279    3297       1    3276    3258    3270    3294       1
    3273    3252    3270    3294       1    3264    3249    3267    3291       1
    3264    3279    3261    3282       1    3264    3285    3303    3315       1
    3261    3246    3258    3276       1    3258    3246    3261    3282       1
    3258    3270    3252    3273       1    3255    3243    3252    3270       1
    3255    3243    3252    3273       1    3252    3270    3258    3276       1
    3249    3240    3243    3255       1    3249    3264    3279    3297       1
    3249    3267    3288    3306       1    3246    3240    3243    3255       1
    3246    3258    3270    3294       1    3246    3261    3279    3297       1
    3243    3252    3270    3294       1    3240    3243    3252    3273       1
    3240    3246    3258    3276       1    3240    3246    3261    3282       1
    3240    3249    3267    3291       1    3450    3438    3444    3453       1
    3447    3435    3444    3453       1    3441    3429    3438    3444       1
    3441    3429    3438    3450       1    3438    3444    3435    3447       1
    3435    3444    3438    3450       1    3432    3420    3426    3435       1
    3429    3438    3444    3453       1    3426    3417    3429    3441       1
    3426    3435    3444    3453       1    3423    3411    3420    3426       1
    3423    3411    3420    3432       1    3420    3426    3435    3447       1
    3417    3426    3420    3432       1    3417    3426    3435    3447       1
    3417    3429    3438    3450       1    3414    3396    3408    3417       1
    3408    3393    3411    3423       1    3408    3417    3429    3441       1
    3399    3375    3396    3408       1    3399    3375    3396    3414       1
    3393    3372    3387    3405       1    3393    3408    3396    3414       1
    3393    3411    3420    3432       1    3390    3369    3387    3405       1
    3384    3366    3378    3402       1    3381    3360    3378    3402       1
    3372    3357    3375    3399       1    3372    3387    3369    3390       1
    3372    3393    3411    3423       1    3369    3354    3366    3384       1
    3366    3354    3369    3390       1    3366    3378    3360    3381       1
    3363    3351    3360    3378       1    3363    3351    3360    3381       1
    3360    3378    3366    3384       1    3357    3348    3351    3363       1
    3357    3372    3387    3405       1    3357    3375    3396    3414       1
    3354    3348    3351    3363       1    3354    3366    3378    3402       1
    3354    3369    3387    3405       1    3351    3360    3378    3402       1
    3348    3351    3360    3381       1    3348    3354    3366    3384       1
    3348    3354    3369    3390       1    3348    3357    3375    3399       1
    3558    3546    3552    3561       1    3555    3543    3552    3561       1
    3549    3537    3546    3552       1    3549    3537    3546    3558       1
    3546    3552    3543    3555       1    3543    3552    3546    3558       1
    3540    3528    3534    3543       1    3537    3546    3552    3561       1
    3534    3525    3537    3549       1    3534    3543    3552    3561       1
    3531    3519    3528    3534       1    3531    3519    3528    3540       1
    3528    3534    3543    3555       1    3525    3534    3528    3540       1
    3525    3534    3543    3555       1    3525    3537    3546    3558       1
    3522    3504    3516    3525       1    3516    3501    3519    3531       1
    3516    3525    3537    3549       1    3507    3483    3504    3516       1
    3507    3483    3504    3522       1    3501    3480    3495    3513       1
    3501    3516    3504    3522       1    3501    3519    3528    3540       1
    3498    3477    3495    3513       1    3492    3474    3486    3510       1
    3489    3468    3486    3510       1    3480    3465    3483    3507       1
    3480    3495    3477    3498       1    3480    3501    3519    3531       1
    3477    3462    3474    3492       1    3474    3462    3477    3498       1
    3474    3486    3468    3489       1    3471    3459    3468    3486       1
    3471    3459    3468    3489       1    3468    3486    3474    3492       1
    3465    3456    3459    3471       1    3465    3480    3495    3513       1
    3465    3483    3504    3522       1    3462    3456    3459    3471       1
    3462    3474    3486    3510       1    3462    3477    3495    3513       1
    3459    3468    3486    3510       1    3456    3459    3468    3489       1
    3456    3462    3474    3492       1    3456    3462    3477    3498       1
    3456    3465    3483    3507       1    3666    3654    3660    3669       1
    3663    3651    3660    3669       1    3657    3645    3654    3660       1
    3657    3645    3654    3666       1    3654    3660    3651    3663       1
    3651    3660    3654    3666       1    3648    3636    3642    3651       1
    3645    3654    3660    3669       1    3642    3633    3645    3657       1
    3642    3651    3660    3669       1    3639    3627    3636    3642       1
    3639    3627    3636    3648       1    3636    3642    3651    3663       1
    3633    3642    3636    3648       1    3633    3642    3651    3663       1
    3633    3645    3654    3666       1    3630    3612    3624    3633       1
    3624    3609    3627    3639       1    3624    3633    3645    3657       1
    3615    3591    3612    3624       1    3615    3591    3612    3630       1
    3609    3588    3603    3621       1    3609    3624    3612    3630       1
    3609    3627    3636    3648       1    3606    3585    3603    3621       1
    3600    3582    3594    3618       1    3597    3576    3594    3618       1
    3588    3573    3591    3615       1    3588    3603    3585    3606       1
    3588    3609    3627    3639       1    3585    3570    3582    3600       1
    3582    3570    3585    3606       1    3582    3594    3576    3597       1
    3579    3567    3576    3594       1    3579    3567    3576    3597       1
    3576    3594    3582    3600       1    3573    3564    3567    3579       1
    3573    3588    3603    3621       1    3573    3591    3612    3630       1
    3570    3564    3567    3579       1    3570    3582    3594    3618       1
    3570    3585    3603    3621       1    3567    3576    3594    3618       1
    3564    3567    3576    3597       1    3564    3570    3582    3600       1
    3564    3570    3585    3606       1    3564    3573    3591    3615       1
    3774    3762    3768    3777       1    3771    3759    3768    3777       1
    3765    3753    3762    3768       1    3765    3753    3762    3774       1
    3762    3768    3759    3771       1    3759    3768    3762    3774       1
    3756    3744    3750    3759       1    3753    3762    3768    3777       1
    3750    3741    3753    3765       1    3750    3759    3768    3777       1
    3747    3735    3744    3750       1    3747    3735    3744    3756       1
    3744    3750    3759    3771       1    3741    3750    3744    3756       1
    3741    3750    3759    3771       1    3741    3753    3762    3774       1
    3738    3720    3732    3741       1    3732    3717    3735    3747       1
    3732    3741    3753    3765       1    3723    3699    3720    3732       1
    3723    3699    3720    3738       1    3717    3696    3711    3729       1
    3717    3732    3720    3738       1    3717    3735    3744    3756       1
    3714    3693    3711    3729       1    3708    3690    3702    3726       1
    3705    3684    3702    3726       1    3696    3681    3699    3723       1
    3696    3711    3693    3714       1    3696    3717    3735    3747       1
    3693    3678    3690    3708       1    3690    3678    3693    3714       1
    3690    3702    3684    3705       1    3687    3675    3684    3702       1
    3687    3675    3684    3705       1    3684    3702    3690    3708       1
    3681    3672    3675    3687       1    3681    3696    3711    3729       1
    3681    3699    3720    3738       1    3678    3672    3675    3687       1
    3678    3690    3702    3726       1    3678    3693    3711    3729       1
    3675    3684    3702    3726       1    3672    3675    3684    3705       1
    3672    3678    3690    3708       1    3672    3678    3693    3714       1
    3672    3681    3699    3723       1    3882    3870    3876    3885       1
    3879    3867    3876    3885       1    3873    3861    3870    3876       1
    3873    3861    3870    3882       1    3870    3876    3867    3879       1
    3867    3876    3870    3882       1    3864    3852    3858    3867       1
    3861    3870    3876    3885       1    3858    3849    3861    3873       1
    3858    3867    3876    3885       1    3855    3843    3852    3858       1
    3855    3843    3852    3864       1    3852    3858    3867    3879       1
    3849    3858    3852    3864       1    3849    3858    3867    3879       1
    3849    3861    3870    3882       1    3846    3828    3840    3849       1
    3840    3825    3843    3855       1    3840    3849    3861    3873       1
    3831    3807    3828    3840       1    3831    3807    3828    3846       1
    3825    3804    3819    3837       1    3825    3840    3828    3846       1
    3825    3843    3852    3864       1    3822    3801    3819    3837       1
    3816    3798    3810    3834       1    3813    3792    3810    3834       1
    3804    3789    3807    3831       1    3804    3819    3801    3822       1
    3804    3825    3843    3855       1    3801    3786    3798    3816       1
    3798    3786    3801    3822       1    3798    3810    3792    3813       1
    3795    3783    3792    3810       1    3795    3783    3792    3813       1
    3792    3810    3798    3816       1    3789    3780    3783    3795       1
    3789    3804    3819    3837       1    3789    3807    3828    3846       1
    3786    3780    3783    3795       1    3786    3798    3810    3834       1
    3786    3801    3819    3837       1    3783    3792    3810    3834       1
    3780    3783    3792    3813       1    3780    3786    3798    3816       1
    3780    3786    3801    3822       1    3780    3789    3807    3831       1
    3990    3978    3984    3993       1    3987    3975    3984    3993       1
    3981    3969    3978    3984       1    3981    3969    3978    3990       1
    3978    3984    3975    3987       1    3975    3984    3978    3990       1
    3972    3960    3966    3975       1    3969    3978    3984    3993       1
    3966    3957    3969    3981       1    3966    3975    3984    3993       1
    3963    3951    3960    3966       1    3963    3951    3960    3972       1
    3960    3966    3975    3987       1    3957    3966    3960    3972       1
    3957    3966    3975    3987       1    3957    3969    3978    3990       1
    3954    3936    3948    3957       1    3948    3933    3951    3963       1
    3948    3957    3969    3981       1    3939    3915    3936    3948       1
    3939    3915    3936    3954       1    3933    3912    3927    3945       1
    3933    3948    3936    3954       1    3933    3951    3960    3972       1
    3930    3909    3927    3945       1    3924    3906    3918    3942       1
    3921    3900    3918    3942       1    3912    3897    3915    3939       1
    3912    3927    3909    3930       1    3912    3933    3951    3963       1
    3909    3894    3906    3924       1    3906    3894    3909    3930       1
    3906    3918    3900    3921       1    3903    3891    3900    3918       1
    3903    3891    3900    3921       1    3900    3918    3906    3924       1
    3897    3888    3891    3903       1    3897    3912    3927    3945       1
    3897    3915    3936    3954       1    3894    3888    3891    3903       1
    3894    3906    3918    3942       1    3894    3909    3927    3945       1
    3891    3900    3918    3942       1    3888    3891    3900    3921       1
    3888    3894    3906    3924       1    3888    3894    3909    3930       1
    3888    3897    3915    3939       1    4098    4086    4092    4101       1
    4095    4083    4092    4101       1    4089    4077    4086    4092       1
    4089    4077    4086    4098       1    4086    4092    4083    4095       1
    4083    4092    4086    4098       1    4080    4068    4074    4083       1
    4077    4086    4092    4101       1    4074    4065    4077    4089       1
    4074    4083    4092    4101       1    4071    4059    4068    4074       1
    4071    4059    4068    4080       1    4068    4074    4083    4095       1
    4065    4074    4068    4080       1    4065    4074    4083    4095       1
    4065    4077    4086    4098       1    4062    4044    4056    4065       1
    4056    4041    4059    4071       1    4056    4065    4077    4089       1
    4047    4023    4044    4056       1    4047    4023    4044    4062       1
    4041    4020    4035    4053       1    4041    4056    4044    4062       1
    4041    4059    4068    4080       1    4038    4017    4035    4053       1
    4032    4014    4026    4050       1    4029    4008    4026    4050       1
    4020    4005    4023    4047       1    4020    4035    4017    4038       1
    4020    4041    4059    4071       1    4017    4002    4014    4032       1
    4014    4002    4017    4038       1    4014    4026    4008    4029       1
    4011    3999    4008    4026       1    4011    3999    4008    4029       1
    4008    4026    4014    4032       1    4005    3996    3999    4011       1
    4005    4020    4035    4053       1    4005    4023    4044    4062       1
    4002    3996    3999    4011       1    4002    4014    4026    4050       1
    4002    4017    4035    4053       1    3999    4008    4026    4050       1
    3996    3999    4008    4029       1    3996    4002    4014    4032       1
    3996    4002    4017    4038       1    3996    4005    4023    4047       1
    4206    4194    4200    4209       1    4203    4191    4200    4209       1
    4197    4185    4194    4200       1    4197    4185    4194    4206       1
    4194    4200    4191    4203       1    4191    4200    4194    4206       1
    4188    4176    4182    4191       1    4185    4194    4200    4209       1
    4182    4173    4185    4197       1    4182    4191    4200    4209       1
    4179    4167    4176    4182       1    4179    4167    4176    4188       1
    4176    4182    4191    4203       1    4173    4182    4176    4188       1
    4173    4182    4191    4203       1    4173    4185    4194    4206       1
    4170    4152    4164    4173       1    4164    4149    4167    4179       1
    4164    4173    4185    4197       1    4155    4131    4152    4164       1
    4155    4131    4152    4170       1    4149    4128    4143    4161       1
    4149    4164    4152    4170       1    4149    4167    4176    4188       1
    4146    4125    4143    4161       1    4140    4122    4134    4158       1
    4137    4116    4134    4158       1    4128    4113    4131    4155       1
    4128    4143    4125    4146       1    4128    4149    4167    4179       1
    4125    4110    4122    4140       1    4122    4110    4125    4146       1
    4122    4134    4116    4137       1    4119    4107    4116    4134       1
    4119    4107    4116    4137       1    4116    4134    4122    4140       1
    4113    4104    4107    4119       1    4113    4128    4143    4161       1
    4113    4131    4152    4170       1    4110    4104    4107    4119       1
    4110    4122    4134    4158       1    4110    4125    4143    4161       1
    4107    4116    4134    4158       1    4104    4107    4116    4137       1
    4104    4110    4122    4140       1    4104    4110    4125    4146       1
    4104    4113    4131    4155       1    4314    4302    4308    4317       1
    4311    4299    4308    4317       1    4305    4293    4302    4308       1
    4305    4293    4302    4314       1    4302    4308    4299    4311       1
    4299    4308    4302    4314       1    4296    4284    4290    4299       1
    4293    4302    4308    4317       1    4290    4281    4293    4305       1
    4290    4299    4308    4317       1    4287    4275    4284    4290       1
    4287    4275    4284    4296       1    4284    4290    4299    4311       1
    4281    4290    4284    4296       1    4281    4290    4299    4311       1
    4281    4293    4302    4314       1    4278    4260    4272    4281       1
    4272    4257    4275    4287       1    4272    4281    4293    4305       1
    4263    4239    4260    4272       1    4263    4239    4260    4278       1
    4257    4236    4251    4269       1    4257    4272    4260    4278       1
    4257    4275    4284    4296       1    4254    4233    4251    4269       1
    4248    4230    4242    4266       1    4245    4224    4242    4266       1
    4236    4221    4239    4263       1    4236    4251    4233    4254       1
    4236    4257    4275    4287       1    4233    4218    4230    4248       1
    4230    4218    4233    4254       1    4230    4242    4224    4245       1
    4227    4215    4224    4242       1    4227    4215    4224    4245       1
    4224    4242    4230    4248       1    4221    4212    4215    4227       1
    4221    4236    4251    4269       1    4221    4239    4260    4278       1
    4218    4212    4215    4227       1    4218    4230    4242    4266       1
    4218    4233    4251    4269       1    4215    4224    4242    4266       1
    4212    4215    4224    4245       1    4212    4218    4230    4248       1
    4212    4218    4233    4254       1    4212    4221    4239    4263       1
    4422    4410    4416    4425       1    4419    4407    4416    4425       1
    4413    4401    4410    4416       1    4413    4401    4410    4422       1
    4410    4416    4407    4419       1    4407    4416    4410    4422       1
    4404    4392    4398    4407       1    4401    4410    4416    4425       1
    4398    4389    4401    4413       1    4398    4407    4416    4425       1
    4395    4383    4392    4398       1    4395    4383    4392    4404       1
    4392    4398    4407    4419       1    4389    4398    4392    4404       1
    4389    4398    4407    4419       1    4389    4401    4410    4422       1
    4386    4368    4380    4389       1    4380    4365    4383    4395       1
    4380    4389    4401    4413       1    4371    4347    4368    4380       1
    4371    4347    4368    4386       1    4365    4344    4359    4377       1
    4365    4380    4368    4386       1    4365    4383    4392    4404       1
    4362    4341    4359    4377       1    4356    4338    4350    4374       1
    4353    4332    4350    4374       1    4344    4329    4347    4371       1
    4344    4359    4341    4362       1    4344    4365    4383    4395       1
    4341    4326    4338    4356       1    4338    4326    4341    4362       1
    4338    4350    4332    4353       1    4335    4323    4332    4350       1
    4335    4323    4332    4353       1    4332    4350    4338    4356       1
    4329    4320    4323    4335       1    4329    4344    4359    4377       1
    4329    4347    4368    4386       1    4326    4320    4323    4335       1
    4326    4338    4350    4374       1    4326    4341    4359    4377       1
    4323    4332    4350    4374       1    4320    4323    4332    4353       1
    4320    4326    4338    4356       1    4320    4326    4341    4362       1
    4320    4329    4347    4371       1    4530    4518    4524    4533       1
    4527    4515    4524    4533       1    4521    4509    4518    4524       1
    4521    4509    4518    4530       1    4518    4524    4515    4527       1
    4515    4524    4518    4530       1    4512    4500    4506    4515       1
    4509    4518    4524    4533       1    4506    4497    4509    4521       1
    4506    4515    4524    4533       1    4503    4491    4500    4506       1
    4503    4491    4500    4512       1    4500    4506    4515    4527       1
    4497    4506    4500    4512       1    4497    4506    4515    4527       1
    4497    4509    4518    4530       1    4494    4476    4488    4497       1
    4488    4473    4491    4503       1    4488    4497    4509    4521       1
    4479    4455    4476    4488       1    4479    4455    4476    4494       1
    4473    4452    4467    4485       1    4473    4488    4476    4494       1
    4473    4491    4500    4512       1    4470    4449    4467    4485       1
    4464    4446    4458    4482       1    4461    4440    4458    4482       1
    4452    4437    4455    4479       1    4452    4467    4449    4470       1
    4452    4473    4491    4503       1    4449    4434    4446    4464       1
    4446    4434    4449    4470       1    4446    4458    4440    4461       1
    4443    4431    4440    4458       1    4443    4431    4440    4461       1
    4440    4458    4446    4464       1    4437    4428    4431    4443       1
    4437    4452    4467    4485       1    4437    4455    4476    4494       1
    4434    4428    4431    4443       1    4434    4446    4458    4482       1
    4434    4449    4467    4485       1    4431    4440    4458    4482       1
    4428    4431    4440    4461       1    4428    4434    4446    4464       1
    4428    4434    4449    4470       1    4428    4437    4455    4479       1
    4638    4626    4632    4641       1    4635    4623    4632    4641       1
    4629    4617    4626    4632       1    4629    4617    4626    4638       1
    4626    4632    4623    4635       1    4623    4632    4626    4638       1
    4620    4608    4614    4623       1    4617    4626    4632    4641       1
    4614    4605    4617    4629       1    4614    4623    4632    4641       1
    4611    4599    4608    4614       1    4611    4599    4608    4620       1
    4608    4614    4623    4635       1    4605    4614    4608    4620       1
    4605    4614    4623    4635       1    4605    4617    4626    4638       1
    4602    4584    4596    4605       1    4596    4581    4599    4611       1
    4596    4605    4617    4629       1    4587    4563    4584    4596       1
    4587    4563    4584    4602       1    4581    4560    4575    4593       1
    4581    4596    4584    4602       1    4581    4599    4608    4620       1
    4578    4557    4575    4593       1    4572    4554    4566    4590       1
    4569    4548    4566    4590       1    4560    4545    4563    4587       1
    4560    4575    4557    4578       1    4560    4581    4599    4611       1
    4557    4542    4554    4572       1    4554    4542    4557    4578       1
    4554    4566    4548    4569       1    4551    4539    4548    4566       1
    4551    4539    4548    4569       1    4548    4566    4554    4572       1
    4545    4536    4539    4551       1    4545    4560    4575    4593       1
    4545    4563    4584    4602       1    4542    4536    4539    4551       1
    4542    4554    4566    4590       1    4542    4557    4575    4593       1
    4539    4548    4566    4590       1    4536    4539    4548    4569       1
    4536    4542    4554    4572       1    4536    4542    4557    4578       1
    4536    4545    4563    4587       1    4746    4734    4740    4749       1
    4743    4731    4740    4749       1    4737    4725    4734    4740       1
    4737    4725    4734    4746       1    4734    4740    4731    4743       1
    4731    4740    4734    4746       1    4728    4716    4722    4731       1
    4725    4734    4740    4749       1    4722    4713    4725    4737       1
    4722    4731    4740    4749       1    4719    4707    4716    4722       1
    4719    4707    4716    4728       1    4716    4722    4731    4743       1
    4713    4722    4716    4728       1    4713    4722    4731    4743       1
    4713    4725    4734    4746       1    4710    4692    4704    4713       1
    4704    4689    4707    4719       1    4704    4713    4725    4737       1
    4695    4671    4692    4704       1    4695    4671    4692    4710       1
    4689    4668    4683    4701       1    4689    4704    4692    4710       1
    4689    4707    4716    4728       1    4686    4665    4683    4701       1
    4680    4662    4674    4698       1    4677    4656    4674    4698       1
    4668    4653    4671    4695       1    4668    4683    4665    4686       1
    4668    4689    4707    4719       1    4665    4650    4662    4680       1
    4662    4650    4665    4686       1    4662    4674    4656    4677       1
    4659    4647    4656    4674       1    4659    4647    4656    4677       1
    4656    4674    4662    4680       1    4653    4644    4647    4659       1
    4653    4668    4683    4701       1    4653    4671    4692    4710       1
    4650    4644    4647    4659       1    4650    4662    4674    4698       1
    4650    4665    4683    4701       1    4647    4656    4674    4698       1
    4644    4647    4656    4677       1    4644    4650    4662    4680       1
    4644    4650    4665    4686       1    4644    4653    4671    4695       1
    4854    4842    4848    4857       1    4851    4839    4848    4857       1
    4845    4833    4842    4848       1    4845    4833    4842    4854       1
    4842    4848    4839    4851       1    4839    4848    4842    4854       1
    4836    4824    4830    4839       1    4833    4842    4848    4857       1
    4830    4821    4833    4845       1    4830    4839    4848    4857       1
    4827    4815    4824    4830       1    4827    4815    4824    4836       1
    4824    4830    4839    4851       1    4821    4830    4824    4836       1
    4821    4830    4839    4851       1    4821    4833    4842    4854       1
    4818    4800    4812    4821       1    4812    4797    4815    4827       1
    4812    4821    4833    4845       1    4803    4779    4800    4812       1
    4803    4779    4800    4818       1    4797    4776    4791    4809       1
    4797    4812    4800    4818       1    4797    4815    4824    4836       1
    4794    4773    4791    4809       1    4788    4770    4782    4806       1
    4785    4764    4782    4806       1    4776    4761    4779    4803       1
    4776    4791    4773    4794       1    4776    4797    4815    4827       1
    4773    4758    4770    4788       1    4770    4758    4773    4794       1
    4770    4782    4764    4785       1    4767    4755    4764    4782       1
    4767    4755    4764    4785       1    4764    4782    4770    4788       1
    4761    4752    4755    4767       1    4761    4776    4791    4809       1
    4761    4779    4800    4818       1    4758    4752    4755    4767       1
    4758    4770    4782    4806       1    4758    4773    4791    4809       1
    4755    4764    4782    4806       1    4752    4755    4764    4785       1
    4752    4758    4770    4788       1    4752    4758    4773    4794       1
    4752    4761    4779    4803       1    4962    4950    4956    4965       1
    4959    4947    4956    4965       1    4953    4941    4950    4956       1
    4953    4941    4950    4962       1    4950    4956    4947    4959       1
    4947    4956    4950    4962       1    4944    4932    4938    4947       1
    4941    4950    4956    4965       1    4938    4929    4941    4953       1
    4938    4947    4956    4965       1    4935    4923    4932    4938       1
    4935    4923    4932    4944       1    4932    4938    4947    4959       1
    4929    4938    4932    4944       1    4929    4938    4947    4959       1
    4929    4941    4950    4962       1    4926    4908    4920    4929       1
    4920    4905    4923    4935       1    4920    4929    4941    4953       1
    4911    4887    4908    4920       1    4911    4887    4908    4926       1
    4905    4884    4899    4917       1    4905    4920    4908    4926       1
    4905    4923    4932    4944       1    4902    4881    4899    4917       1
    4896    4878    4890    4914       1    4893    4872    4890    4914       1
    4884    4869    4887    4911       1    4884    4899    4881    4902       1
    4884    4905    4923    4935       1    4881    4866    4878    4896       1
    4878    4866    4881    4902       1    4878    4890    4872    4893       1
    4875    4863    4872    4890       1    4875    4863    4872    4893       1
    4872    4890    4878    4896       1    4869    4860    4863    4875       1
    4869    4884    4899    4917       1    4869    4887    4908    4926       1
    4866    4860    4863    4875       1    4866    4878    4890    4914       1
    4866    4881    4899    4917       1    4863    4872    4890    4914       1
    4860    4863    4872    4893       1    4860    4866    4878    4896       1
    4860    4866    4881    4902       1    4860    4869    4887    4911       1
    5070    5058    5064    5073       1    5067    5055    5064    5073       1
    5061    5049    5058    5064       1    5061    5049    5058    5070       1
    5058    5064    5055    5067       1    5055    5064    5058    5070       1
    5052    5040    5046    5055       1    5049    5058    5064    5073       1
    5046    5037    5049    5061       1    5046    5055    5064    5073       1
    5043    5031    5040    5046       1    5043    5031    5040    5052       1
    5040    5046    5055    5067       1    5037    5046    5040    5052       1
    5037    5046    5055    5067       1    5037    5049    5058    5070       1
    5034    5016    5028    5037       1    5028    5013    5031    5043       1
    5028    5037    5049    5061       1    5019    4995    5016    5028       1
    5019    4995    5016    5034       1    5013    4992    5007    5025       1
    5013    5028    5016    5034       1    5013    5031    5040    5052       1
    5010    4989    5007    5025       1    5004    4986    4998    5022       1
    5001    4980    4998    5022       1    4992    4977    4995    5019       1
    4992    5007    4989    5010       1    4992    5013    5031    5043       1
    4989    4974    4986    5004       1    4986    4974    4989    5010       1
    4986    4998    4980    5001       1    4983    4971    4980    4998       1
    4983    4971    4980    5001       1    4980    4998    4986    5004       1
    4977    4968    4971    4983       1    4977    4992    5007    5025       1
    4977    4995    5016    5034       1    4974    4968    4971    4983       1
    4974    4986    4998    5022       1    4974    4989    5007    5025       1
    4971    4980    4998    5022       1    4968    4971    4980    5001       1
    4968    4974    4986    5004       1    4968    4974    4989    5010       1
    4968    4977    4995    5019       1    5178    5166    5172    5181       1
    5175    5163    5172    5181       1    5169    5157    5166    5172       1
    5169    5157    5166    5178       1    5166    5172    5163    5175       1
    5163    5172    5166    5178       1    5160    5148    5154    5163       1
    5157    5166    5172    5181       1    5154    5145    5157    5169       1
    5154    5163    5172    5181       1    5151    5139    5148    5154       1
    5151    5139    5148    5160       1    5148    5154    5163    5175       1
    5145    5154    5148    5160       1    5145    5154    5163    5175       1
    5145    5157    5166    5178       1    5142    5124    5136    5145       1
    5136    5121    5139    5151       1    5136    5145    5157    5169       1
    5127    5103    5124    5136       1    5127    5103    5124    5142       1
    5121    5100    5115    5133       1    5121    5136    5124    5142       1
    5121    5139    5148    5160       1    5118    5097    5115    5133       1
    5112    5094    5106    5130       1    5109    5088    5106    5130       1
    5100    5085    5103    5127       1    5100    5115    5097    5118       1
    5100    5121    5139    5151       1    5097    5082    5094    5112       1
    5094    5082    5097    5118       1    5094    5106    5088    5109       1
    5091    5079    5088    5106       1    5091    5079    5088    5109       1
    5088    5106    5094    5112       1    5085    5076    5079    5091       1
    5085    5100    5115    5133       1    5085    5103    5124    5142       1
    5082    5076    5079    5091       1    5082    5094    5106    5130       1
    5082    5097    5115    5133       1    5079    5088    5106    5130       1
    5076    5079    5088    5109       1    5076    5082    5094    5112       1
    5076    5082    5097    5118       1    5076    5085    5103    5127       1
    5286    5274    5280    5289       1    5283    5271    5280    5289       1
    5277    5265    5274    5280       1    5277    5265    5274    5286       1
    5274    5280    5271    5283       1    5271    5280    5274    5286       1
    5268    5256    5262    5271       1    5265    5274    5280    5289       1
    5262    5253    5265    5277       1    5262    5271    5280    5289       1
    5259    5247    5256    5262       1    5259    5247    5256    5268       1
    5256    5262    5271    5283       1    5253    5262    5256    5268       1
    5253    5262    5271    5283       1    5253    5265    5274    5286       1
    5250    5232    5244    5253       1    5244    5229    5247    5259       1
    5244    5253    5265    5277       1    5235    5211    5232    5244       1
    5235    5211    5232    5250       1    5229    5208    5223    5241       1
    5229    5244    5232    5250       1    5229    5247    5256    5268       1
    5226    5205    5223    5241       1    5220    5202    5214    5238       1
    5217    5196    5214    5238       1    5208    5193    5211    5235       1
    5208    5223    5205    5226       1    5208    5229    5247    5259       1
    5205    5190    5202    5220       1    5202    5190    5205    5226       1
    5202    5214    5196    5217       1    5199    5187    5196    5214       1
    5199    5187    5196    5217       1    5196    5214    5202    5220       1
    5193    5184    5187    5199       1    5193    5208    5223    5241       1
    5193    5211    5232    5250       1    5190    5184    5187    5199       1
    5190    5202    5214    5238       1    5190    5205    5223    5241       1
    5187    5196    5214    5238       1    5184    5187    5196    5217       1
    5184    5190    5202    5220       1    5184    5190    5205    5226       1
    5184    5193    5211    5235       1    5394    5382    5388    5397       1
    5391    5379    5388    5397       1    5385    5373    5382    5388       1
    5385    5373    5382    5394       1    5382    5388    5379    5391       1
    5379    5388    5382    5394       1    5376    5364    5370    5379       1
    5373    5382    5388    5397       1    5370    5361    5373    5385       1
    5370    5379    5388    5397       1    5367    5355    5364    5370       1
    5367    5355    5364    5376       1    5364    5370    5379    5391       1
    5361    5370    5364    5376       1    5361    5370    5379    5391       1
    5361    5373    5382    5394       1    5358    5340    5352    5361       1
    5352    5337    5355    5367       1    5352    5361    5373    5385       1
    5343    5319    5340    5352       1    5343    5319    5340    5358       1
    5337    5316    5331    5349       1    5337    5352    5340    5358       1
    5337    5355    5364    5376       1    5334    5313    5331    5349       1
    5328    5310    5322    5346       1    5325    5304    5322    5346       1
    5316    5301    5319    5343       1    5316    5331    5313    5334       1
    5316    5337    5355    5367       1    5313    5298    5310    5328       1
    5310    5298    5313    5334       1    5310    5322    5304    5325       1
    5307    5295    5304    5322       1    5307    5295    5304    5325       1
    5304    5322    5310    5328       1    5301    5292    5295    5307       1
    5301    5316    5331    5349       1    5301    5319    5340    5358       1
    5298    5292    5295    5307       1    5298    5310    5322    5346       1
    5298    5313    5331    5349       1    5295    5304    5322    5346       1
    5292    5295    5304    5325       1    5292    5298    5310    5328       1
    5292    5298    5313    5334       1    5292    5301    5319    5343       1
    5502    5490    5496    5505       1    5499    5487    5496    5505       1
    5493    5481    5490    5496       1    5493    5481    5490    5502       1
    5490    5496    5487    5499       1    5487    5496    5490    5502       1
    5484    5472    5478    5487       1    5481    5490    5496    5505       1
    5478    5469    5481    5493       1    5478    5487    5496    5505       1
    5475    5463    5472    5478       1    5475    5463    5472    5484       1
    5472    5478    5487    5499       1    5469    5478    5472    5484       1
    5469    5478    5487    5499       1    5469    5481    5490    5502       1
    5466    5448    5460    5469       1    5460    5445    5463    5475       1
    5460    5469    5481    5493       1    5451    5427    5448    5460       1
    5451    5427    5448    5466       1    5445    5424    5439    5457       1
    5445    5460    5448    5466       1    5445    5463    5472    5484       1
    5442    5421    5439    5457       1    5436    5418    5430    5454       1
    5433    5412    5430    5454       1    5424    5409    5427    5451       1
    5424    5439    5421    5442       1    5424    5445    5463    5475       1
    5421    5406    5418    5436       1    5418    5406    5421    5442       1
    5418    5430    5412    5433       1    5415    5403    5412    5430       1
    5415    5403    5412    5433       1    5412    5430    5418    5436       1
    5409    5400    5403    5415       1    5409    5424    5439    5457       1
    5409    5427    5448    5466       1    5406    5400    5403    5415       1
    5406    5418    5430    5454       1    5406    5421    5439    5457       1
    5403    5412    5430    5454       1    5400    5403    5412    5433       1
    5400    5406    5418    5436       1    5400    5406    5421    5442       1
    5400    5409    5427    5451       1    5610    5598    5604    5613       1
    5607    5595    5604    5613       1    5601    5589    5598    5604       1
    5601    5589    5598    5610       1    5598    5604    5595    5607       1
    5595    5604    5598    5610       1    5592    5580    5586    5595       1
    5589    5598    5604    5613       1    5586    5577    5589    5601       1
    5586    5595    5604    5613       1    5583    5571    5580    5586       1
    5583    5571    5580    5592       1    5580    5586    5595    5607       1
    5577    5586    5580    5592       1    5577    5586    5595    5607       1
    5577    5589    5598    5610       1    5574    5556    5568    5577       1
    5568    5553    5571    5583       1    5568    5577    5589    5601       1
    5559    5535    5556    5568       1    5559    5535    5556    5574       1
    5553    5532    5547    5565       1    5553    5568    5556    5574       1
    5553    5571    5580    5592       1    5550    5529    5547    5565       1
    5544    5526    5538    5562       1    5541    5520    5538    5562       1
    5532    5517    5535    5559       1    5532    5547    5529    5550       1
    5532    5553    5571    5583       1    5529    5514    5526    5544       1
    5526    5514    5529    5550       1    5526    5538    5520    5541       1
    5523    5511    5520    5538       1    5523    5511    5520    5541       1
    5520    5538    5526    5544       1    5517    5508    5511    5523       1
    5517    5532    5547    5565       1    5517    5535    5556    5574       1
    5514    5508    5511    5523       1    5514    5526    5538    5562       1
    5514    5529    5547    5565       1    5511    5520    5538    5562       1
    5508    5511    5520    5541       1    5508    5514    5526    5544       1
    5508    5514    5529    5550       1    5508    5517    5535    5559       1
    5718    5706    5712    5721       1    5715    5703    5712    5721       1
    5709    5697    5706    5712       1    5709    5697    5706    5718       1
    5706    5712    5703    5715       1    5703    5712    5706    5718       1
    5700    5688    5694    5703       1    5697    5706    5712    5721       1
    5694    5685    5697    5709       1    5694    5703    5712    5721       1
    5691    5679    5688    5694       1    5691    5679    5688    5700       1
    5688    5694    5703    5715       1    5685    5694    5688    5700       1
    5685    5694    5703    5715       1    5685    5697    5706    5718       1
    5682    5664    5676    5685       1    5676    5661    5679    5691       1
    5676    5685    5697    5709       1    5667    5643    5664    5676       1
    5667    5643    5664    5682       1    5661    5640    5655    5673       1
    5661    5676    5664    5682       1    5661    5679    5688    5700       1
    5658    5637    5655    5673       1    5652    5634    5646    5670       1
    5649    5628    5646    5670       1    5640    5625    5643    5667       1
    5640    5655    5637    5658       1    5640    5661    5679    5691       1
    5637    5622    5634    5652       1    5634    5622    5637    5658       1
    5634    5646    5628    5649       1    5631    5619    5628    5646       1
    5631    5619    5628    5649       1    5628    5646    5634    5652       1
    5625    5616    5619    5631       1    5625    5640    5655    5673       1
    5625    5643    5664    5682       1    5622    5616    5619    5631       1
    5622    5634    5646    5670       1    5622    5637    5655    5673       1
    5619    5628    5646    5670       1    5616    5619    5628    5649       1
    5616    5622    5634    5652       1    5616    5622    5637    5658       1
    5616    5625    5643    5667       1    5826    5814    5820    5829       1
    5823    5811    5820    5829       1    5817    5805    5814    5820       1
    5817    5805    5814    5826       1    5814    5820    5811    5823       1
    5811    5820    5814    5826       1    5808    5796    5802    5811       1
    5805    5814    5820    5829       1    5802    5793    5805    5817       1
    5802    5811    5820    5829       1    5799    5787    5796    5802       1
    5799    5787    5796    5808       1    5796    5802    5811    5823       1
    5793    5802    5796    5808       1    5793    5802    5811    5823       1
    5793    5805    5814    5826       1    5790    5772    5784    5793       1
    5784    5769    5787    5799       1    5784    5793    5805    5817       1
    5775    5751    5772    5784       1    5775    5751    5772    5790       1
    5769    5748    5763    5781       1    5769    5784    5772    5790       1
    5769    5787    5796    5808       1    5766    5745    5763    5781       1
    5760    5742    5754    5778       1    5757    5736    5754    5778       1
    5748    5733    5751    5775       1    5748    5763    5745    5766       1
    5748    5769    5787    5799       1    5745    5730    5742    5760       1
    5742    5730    5745    5766       1    5742    5754    5736    5757       1
    5739    5727    5736    5754       1    5739    5727    5736    5757       1
    5736    5754    5742    5760       1    5733    5724    5727    5739       1
    5733    5748    5763    5781       1    5733    5751    5772    5790       1
    5730    5724    5727    5739       1    5730    5742    5754    5778       1
    5730    5745    5763    5781       1    5727    5736    5754    5778       1
    5724    5727    5736    5757       1    5724    5730    5742    5760       1
    5724    5730    5745    5766       1    5724    5733    5751    5775       1
    5934    5922    5928    5937       1    5931    5919    5928    5937       1
    5925    5913    5922    5928       1    5925    5913    5922    5934       1
    5922    5928    5919    5931       1    5919    5928    5922    5934       1
    5916    5904    5910    5919       1    5913    5922    5928    5937       1
    5910    5901    5913    5925       1    5910    5919    5928    5937       1
    5907    5895    5904    5910       1    5907    5895    5904    5916       1
    5904    5910    5919    5931       1    5901    5910    5904    5916       1
    5901    5910    5919    5931       1    5901    5913    5922    5934       1
    5898    5880    5892    5901       1    5892    5877    5895    5907       1
    5892    5901    5913    5925       1    5883    5859    5880    5892       1
    5883    5859    5880    5898       1    5877    5856    5871    5889       1
    5877    5892    5880    5898       1    5877    5895    5904    5916       1
    5874    5853    5871    5889       1    5868    5850    5862    5886       1
    5865    5844    5862    5886       1    5856    5841    5859    5883       1
    5856    5871    5853    5874       1    5856    5877    5895    5907       1
    5853    5838    5850    5868       1    5850    5838    5853    5874       1
    5850    5862    5844    5865       1    5847    5835    5844    5862       1
    5847    5835    5844    5865       1    5844    5862    5850    5868       1
    5841    5832    5835    5847       1    5841    5856    5871    5889       1
    5841    5859    5880    5898       1    5838    5832    5835    5847       1
    5838    5850    5862    5886       1    5838    5853    5871    5889       1
    5835    5844    5862    5886       1    5832    5835    5844    5865       1
    5832    5838    5850    5868       1    5832    5838    5853    5874       1
    5832    5841    5859    5883       1    6042    6030    6036    6045       1
    6039    6027    6036    6045       1    6033    6021    6030    6036       1
    6033    6021    6030    6042       1    6030    6036    6027    6039       1
    6027    6036    6030    6042       1    6024    6012    6018    6027       1
    6021    6030    6036    6045       1    6018    6009    6021    6033       1
    6018    6027    6036    6045       1    6015    6003    6012    6018       1
    6015    6003    6012    6024       1    6012    6018    6027    6039       1
    6009    6018    6012    6024       1    6009    6018    6027    6039       1
    6009    6021    6030    6042       1    6006    5988    6000    6009       1
    6000    5985    6003    6015       1    6000    6009    6021    6033       1
    5991    5967    5988    6000       1    5991    5967    5988    6006       1
    5985    5964    5979    5997       1    5985    6000    5988    6006       1
    5985    6003    6012    6024       1    5982    5961    5979    5997       1
    5976    5958    5970    5994       1    5973    5952    5970    5994       1
    5964    5949    5967    5991       1    5964    5979    5961    5982       1
    5964    5985    6003    6015       1    5961    5946    5958    5976       1
    5958    5946    5961    5982       1    5958    5970    5952    5973       1
    5955    5943    5952    5970       1    5955    5943    5952    5973       1
    5952    5970    5958    5976       1    5949    5940    5943    5955       1
    5949    5964    5979    5997       1    5949    5967    5988    6006       1
    5946    5940    5943    5955       1    5946    5958    5970    5994       1
    5946    5961    5979    5997       1    5943    5952    5970    5994       1
    5940    5943    5952    5973       1    5940    5946    5958    5976       1
    5940    5946    5961    5982       1    5940    5949    5967    5991       1
    6150    6138    6144    6153       1    6147    6135    6144    6153       1
    6141    6129    6138    6144       1    6141    6129    6138    6150       1
    6138    6144    6135    6147       1    6135    6144    6138    6150       1
    6132    6120    6126    6135       1    6129    6138    6144    6153       1
    6126    6117    6129    6141       1    6126    6135    6144    6153       1
    6123    6111    6120    6126       1    6123    6111    6120    6132       1
    6120    6126    6135    6147       1    6117    6126    6120    6132       1
    6117    6126    6135    6147       1    6117    6129    6138    6150       1
    6114    6096    6108    6117       1    6108    6093    6111    6123       1
    6108    6117    6129    6141       1    6099    6075    6096    6108       1
    6099    6075    6096    6114       1    6093    6072    6087    6105       1
    6093    6108    6096    6114       1    6093    6111    6120    6132       1
    6090    6069    6087    6105       1    6084    6066    6078    6102       1
    6081    6060    6078    6102       1    6072    6057    6075    6099       1
    6072    6087    6069    6090       1    6072    6093    6111    6123       1
    6069    6054    6066    6084       1    6066    6054    6069    6090       1
    6066    6078    6060    6081       1    6063    6051    6060    6078       1
    6063    6051    6060    6081       1    6060    6078    6066    6084       1
    6057    6048    6051    6063       1    6057    6072    6087    6105       1
    6057    6075    6096    6114       1    6054    6048    6051    6063       1
    6054    6066    6078    6102       1    6054    6069    6087    6105       1
    6051    6060    6078    6102       1    6048    6051    6060    6081       1
    6048    6054    6066    6084       1    6048    6054    6069    6090       1
    6048    6057    6075    6099       1    6258    6246    6252    6261       1
    6255    6243    6252    6261       1    6249    6237    6246    6252       1
    6249    6237    6246    6258       1    6246    6252    6243    6255       1
    6243    6252    6246    6258       1    6240    6228    6234    6243       1
    6237    6246    6252    6261       1    6234    6225    6237    6249       1
    6234    6243    6252    6261       1    6231    6219    6228    6234       1
    6231    6219    6228    6240       1    6228    6234    6243    6255       1
    6225    6234    6228    6240       1    6225    6234    6243    6255       1
    6225    6237    6246    6258       1    6222    6204    6216    6225       1
    6216    6201    6219    6231       1    6216    6225    6237    6249       1
    6207    6183    6204    6216       1    6207    6183    6204    6222       1
    6201    6180    6195    6213       1    6201    6216    6204    6222       1
    6201    6219    6228    6240       1    6198    6177    6195    6213       1
    6192    6174    6186    6210       1    6189    6168    6186    6210       1
    6180    6165    6183    6207       1    6180    6195    6177    6198       1
    6180    6201    6219    6231       1    6177    6162    6174    6192       1
    6174    6162    6177    6198       1    6174    6186    6168    6189       1
    6171    6159    6168    6186       1    6171    6159    6168    6189       1
    6168    6186    6174    6192       1    6165    6156    6159    6171       1
    6165    6180    6195    6213       1    6165    6183    6204    6222       1
    6162    6156    6159    6171       1    6162    6174    6186    6210       1
    6162    6177    6195    6213       1    6159    6168    6186    6210       1
    6156    6159    6168    6189       1    6156    6162    6174    6192       1
    6156    6162    6177    6198       1    6156    6165    6183    6207       1
    6366    6354    6360    6369       1    6363    6351    6360    6369       1
    6357    6345    6354    6360       1    6357    6345    6354    6366       1
    6354    6360    6351    6363       1    6351    6360    6354    6366       1
    6348    6336    6342    6351       1    6345    6354    6360    6369       1
    6342    6333    6345    6357       1    6342    6351    6360    6369       1
    6339    6327    6336    6342       1    6339    6327    6336    6348       1
    6336    6342    6351    6363       1    6333    6342    6336    6348       1
    6333    6342    6351    6363       1    6333    6345    6354    6366       1
    6330    6312    6324    6333       1    6324    6309    6327    6339       1
    6324    6333    6345    6357       1    6315    6291    6312    6324       1
    6315    6291    6312    6330       1    6309    6288    6303    6321       1
    6309    6324    6312    6330       1    6309    6327    6336    6348       1
    6306    6285    6303    6321       1    6300    6282    6294    6318       1
    6297    6276    6294    6318       1    6288    6273    6291    6315       1
    6288    6303    6285    6306       1    6288    6309    6327    6339       1
    6285    6270    6282    6300       1    6282    6270    6285    6306       1
    6282    6294    6276    6297       1    6279    6267    6276    6294       1
    6279    6267    6276    6297       1    6276    6294    6282    6300       1
    6273    6264    6267    6279       1    6273    6288    6303    6321       1
    6273    6291    6312    6330       1    6270    6264    6267    6279       1
    6270    6282    6294    6318       1    6270    6285    6303    6321       1
    6267    6276    6294    6318       1    6264    6267    6276    6297       1
    6264    6270    6282    6300       1    6264    6270    6285    6306       1
    6264    6273    6291    6315       1    6474    6462    6468    6477       1
    6471    6459    6468    6477       1    6465    6453    6462    6468       1
    6465    6453    6462    6474       1    6462    6468    6459    6471       1
    6459    6468    6462    6474       1    6456    6444    6450    6459       1
    6453    6462    6468    6477       1    6450    6441    6453    6465       1
    6450    6459    6468    6477       1    6447    6435    6444    6450       1
    6447    6435    6444    6456       1    6444    6450    6459    6471       1
    6441    6450    6444    6456       1    6441    6450    6459    6471       1
    6441    6453    6462    6474       1    6438    6420    6432    6441       1
    6432    6417    6435    6447       1    6432    6441    6453    6465       1
    6423    6399    6420    6432       1    6423    6399    6420    6438       1
    6417    6396    6411    6429       1    6417    6432    6420    6438       1
    6417    6435    6444    6456       1    6414    6393    6411    6429       1
    6408    6390    6402    6426       1    6405    6384    6402    6426       1
    6396    6381    6399    6423       1    6396    6411    6393    6414       1
    6396    6417    6435    6447       1    6393    6378    6390    6408       1
    6390    6378    6393    6414       1    6390    6402    6384    6405       1
    6387    6375    6384    6402       1    6387    6375    6384    6405       1
    6384    6402    6390    6408       1    6381    6372    6375    6387       1
    6381    6396    6411    6429       1    6381    6399    6420    6438       1
    6378    6372    6375    6387       1    6378    6390    6402    6426       1
    6378    6393    6411    6429       1    6375    6384    6402    6426       1
    6372    6375    6384    6405       1    6372    6378    6390    6408       1
    6372    6378    6393    6414       1    6372    6381    6399    6423       1
    6582    6570    6576    6585       1    6579    6567    6576    6585       1
    6573    6561    6570    6576       1    6573    6561    6570    6582       1
    6570    6576    6567    6579       1    6567    6576    6570    6582       1
    6564    6552    6558    6567       1    6561    6570    6576    6585       1
    6558    6549    6561    6573       1    6558    6567    6576    6585       1
    6555    6543    6552    6558       1    6555    6543    6552    6564       1
    6552    6558    6567    6579       1    6549    6558    6552    6564       1
    6549    6558    6567    6579       1    6549    6561    6570    6582       1
    6546    6528    6540    6549       1    6540    6525    6543    6555       1
    6540    6549    6561    6573       1    6531    6507    6528    6540       1
    6531    6507    6528    6546       1    6525    6504    6519    6537       1
    6525    6540    6528    6546       1    6525    6543    6552    6564       1
    6522    6501    6519    6537       1    6516    6498    6510    6534       1
    6513    6492    6510    6534       1    6504    6489    6507    6531       1
    6504    6519    6501    6522       1    6504    6525    6543    6555       1
    6501    6486    6498    6516       1    6498    6486    6501    6522       1
    6498    6510    6492    6513       1    6495    6483    6492    6510       1
    6495    6483    6492    6513       1    6492    6510    6498    6516       1
    6489    6480    6483    6495       1    6489    6504    6519    6537       1
    6489    6507    6528    6546       1    6486    6480    6483    6495       1
    6486    6498    6510    6534       1    6486    6501    6519    6537       1
    6483    6492    6510    6534       1    6480    6483    6492    6513       1
    6480    6486    6498    6516       1    6480    6486    6501    6522       1
    6480    6489    6507    6531       1    6690    6678    6684    6693       1
    6687    6675    6684    6693       1    6681    6669    6678    6684       1
    6681    6669    6678    6690       1    6678    6684    6675    6687       1
    6675    6684    6678    6690       1    6672    6660    6666    6675       1
    6669    6678    6684    6693       1    6666    6657    6669    6681       1
    6666    6675    6684    6693       1    6663    6651    6660    6666       1
    6663    6651    6660    6672       1    6660    6666    6675    6687       1
    6657    6666    6660    6672       1    6657    6666    6675    6687       1
    6657    6669    6678    6690       1    6654    6636    6648    6657       1
    6648    6633    6651    6663       1    6648    6657    6669    6681       1
    6639    6615    6636    6648       1    6639    6615    6636    6654       1
    6633    6612    6627    6645       1    6633    6648    6636    6654       1
    6633    6651    6660    6672       1    6630    6609    6627    6645       1
    6624    6606    6618    6642       1    6621    6600    6618    6642       1
    6612    6597    6615    6639       1    6612    6627    6609    6630       1
    6612    6633    6651    6663       1    6609    6594    6606    6624       1
    6606    6594    6609    6630       1    6606    6618    6600    6621       1
    6603    6591    6600    6618       1    6603    6591    6600    6621       1
    6600    6618    6606    6624       1    6597    6588    6591    6603       1
    6597    6612    6627    6645       1    6597    6615    6636    6654       1
    6594    6588    6591    6603       1    6594    6606    6618    6642       1
    6594    6609    6627    6645       1    6591    6600    6618    6642       1
    6588    6591    6600    6621       1    6588    6594    6606    6624       1
    6588    6594    6609    6630       1    6588    6597    6615    6639       1
    6798    6786    6792    6801       1    6795    6783    6792    6801       1
    6789    6777    6786    6792       1    6789    6777    6786    6798       1
    6786    6792    6783    6795       1    6783    6792    6786    6798       1
    6780    6768    6774    6783       1    6777    6786    6792    6801       1
    6774    6765    6777    6789       1    6774    6783    6792    6801       1
    6771    6759    6768    6774       1    6771    6759    6768    6780       1
    6768    6774    6783    6795       1    6765    6774    6768    6780       1
    6765    6774    6783    6795       1    6765    6777    6786    6798       1
    6762    6744    6756    6765       1    6756    6741    6759    6771       1
    6756    6765    6777    6789       1    6747    6723    6744    6756       1
    6747    6723    6744    6762       1    6741    6720    6735    6753       1
    6741    6756    6744    6762       1    6741    6759    6768    6780       1
    6738    6717    6735    6753       1    6732    6714    6726    6750       1
    6729    6708    6726    6750       1    6720    6705    6723    6747       1
    6720    6735    6717    6738       1    6720    6741    6759    6771       1
    6717    6702    6714    6732       1    6714    6702    6717    6738       1
    6714    6726    6708    6729       1    6711    6699    6708    6726       1
    6711    6699    6708    6729       1    6708    6726    6714    6732       1
    6705    6696    6699    6711       1    6705    6720    6735    6753       1
    6705    6723    6744    6762       1    6702    6696    6699    6711       1
    6702    6714    6726    6750       1    6702    6717    6735    6753       1
    6699    6708    6726    6750       1    6696    6699    6708    6729       1
    6696    6702    6714    6732       1    6696    6702    6717    6738       1
    6696    6705    6723    6747       1    6906    6894    6900    6909       1
    6903    6891    6900    6909       1    6897    6885    6894    6900       1
    6897    6885    6894    6906       1    6894    6900    6891    6903       1
    6891    6900    6894    6906       1    6888    6876    6882    6891       1
    6885    6894    6900    6909       1    6882    6873    6885    6897       1
    6882    6891    6900    6909       1    6879    6867    6876    6882       1
    6879    6867    6876    6888       1    6876    6882    6891    6903       1
    6873    6882    6876    6888       1    6873    6882    6891    6903       1
    6873    6885    6894    6906       1    6870    6852    6864    6873       1
    6864    6849    6867    6879       1    6864    6873    6885    6897       1
    6855    6831    6852    6864       1    6855    6831    6852    6870       1
    6849    6828    6843    6861       1    6849    6864    6852    6870       1
    6849    6867    6876    6888       1    6846    6825    6843    6861       1
    6840    6822    6834    6858       1    6837    6816    6834    6858       1
    6828    6813    6831    6855       1    6828    6843    6825    6846       1
    6828    6849    6867    6879       1    6825    6810    6822    6840       1
    6822    6810    6825    6846       1    6822    6834    6816    6837       1
    6819    6807    6816    6834       1    6819    6807    6816    6837       1
    6816    6834    6822    6840       1    6813    6804    6807    6819       1
    6813    6828    6843    6861       1    6813    6831    6852    6870       1
    6810    6804    6807    6819       1    6810    6822    6834    6858       1
    6810    6825    6843    6861       1    6807    6816    6834    6858       1
    6804    6807    6816    6837       1    6804    6810    6822    6840       1
    6804    6810    6825    6846       1    6804    6813    6831    6855       1
    7014    7002    7008    7017       1    7011    6999    7008    7017       1
    7005    6993    7002    7008       1    7005    6993    7002    7014       1
    7002    7008    6999    7011       1    6999    7008    7002    7014       1
    6996    6984    6990    6999       1    6993    7002    7008    7017       1
    6990    6981    6993    7005       1    6990    6999    7008    7017       1
    6987    6975    6984    6990       1    6987    6975    6984    6996       1
    6984    6990    6999    7011       1    6981    6990    6984    6996       1
    6981    6990    6999    7011       1    6981    6993    7002    7014       1
    6978    6960    6972    6981       1    6972    6957    6975    6987       1
    6972    6981    6993    7005       1    6963    6939    6960    6972       1
    6963    6939    6960    6978       1    6957    6936    6951    6969       1
    6957    6972    6960    6978       1    6957    6975    6984    6996       1
    6954    6933    6951    6969       1    6948    6930    6942    6966       1
    6945    6924    6942    6966       1    6936    6921    6939    6963       1
    6936    6951    6933    6954       1    6936    6957    6975    6987       1
    6933    6918    6930    6948       1    6930    6918    6933    6954       1
    6930    6942    6924    6945       1    6927    6915    6924    6942       1
    6927    6915    6924    6945       1    6924    6942    6930    6948       1
    6921    6912    6915    6927       1    6921    6936    6951    6969       1
    6921    6939    6960    6978       1    6918    6912    6915    6927       1
    6918    6930    6942    6966       1    6918    6933    6951    6969       1
    6915    6924    6942    6966       1    6912    6915    6924    6945       1
    6912    6918    6930    6948       1    6912    6918    6933    6954       1
    6912    6921    6939    6963       1    7122    7110    7116    7125       1
    7119    7107    7116    7125       1    7113    7101    7110    7116       1
    7113    7101    7110    7122       1    7110    7116    7107    7119       1
    7107    7116    7110    7122       1    7104    7092    7098    7107       1
    7101    7110    7116    7125       1    7098    7089    7101    7113       1
    7098    7107    7116    7125       1    7095    7083    7092    7098       1
    7095    7083    7092    7104       1    7092    7098    7107    7119       1
    7089    7098    7092    7104       1    7089    7098    7107    7119       1
    7089    7101    7110    7122       1    7086    7068    7080    7089       1
    7080    7065    7083    7095       1    7080    7089    7101    7113       1
    7071    7047    7068    7080       1    7071    7047    7068    7086       1
    7065    7044    7059    7077       1    7065    7080    7068    7086       1
    7065    7083    7092    7104       1    7062    7041    7059    7077       1
    7056    7038    7050    7074       1    7053    7032    7050    7074       1
    7044    7029    7047    7071       1    7044    7059    7041    7062       1
    7044    7065    7083    7095       1    7041    7026    7038    7056       1
    7038    7026    7041    7062       1    7038    7050    7032    7053       1
    7035    7023    7032    7050       1    7035    7023    7032    7053       1
    7032    7050    7038    7056       1    7029    7020    7023    7035       1
    7029    7044    7059    7077       1    7029    7047    7068    7086       1
    7026    7020    7023    7035       1    7026    7038    7050    7074       1
    7026    7041    7059    7077       1    7023    7032    7050    7074       1
    7020    7023    7032    7053       1    7020    7026    7038    7056       1
    7020    7026    7041    7062       1    7020    7029    7047    7071       1
    7230    7218    7224    7233       1    7227    7215    7224    7233       1
    7221    7209    7218    7224       1    7221    7209    7218    7230       1
    7218    7224    7215    7227       1    7215    7224    7218    7230       1
    7212    7200    7206    7215       1    7209    7218    7224    7233       1
    7206    7197    7209    7221       1    7206    7215    7224    7233       1
    7203    7191    7200    7206       1    7203    7191    7200    7212       1
    7200    7206    7215    7227       1    7197    7206    7200    7212       1
    7197    7206    7215    7227       1    7197    7209    7218    7230       1
    7194    7176    7188    7197       1    7188    7173    7191    7203       1
    7188    7197    7209    7221       1    7179    7155    7176    7188       1
    7179    7155    7176    7194       1    7173    7152    7167    7185       1
    7173    7188    7176    7194       1    7173    7191    7200    7212       1
    7170    7149    7167    7185       1    7164    7146    7158    7182       1
    7161    7140    7158    7182       1    7152    7137    7155    7179       1
    7152    7167    7149    7170       1    7152    7173    7191    7203       1
    7149    7134    7146    7164       1    7146    7134    7149    7170       1
    7146    7158    7140    7161       1    7143    7131    7140    7158       1
    7143    7131    7140    7161       1    7140    7158    7146    7164       1
    7137    7128    7131    7143       1    7137    7152    7167    7185       1
    7137    7155    7176    7194       1    7134    7128    7131    7143       1
    7134    7146    7158    7182       1    7134    7149    7167    7185       1
    7131    7140    7158    7182       1    7128    7131    7140    7161       1
    7128    7134    7146    7164       1    7128    7134    7149    7170       1
    7128    7137    7155    7179       1    7338    7326    7332    7341       1
    7335    7323    7332    7341       1    7329    7317    7326    7332       1
    7329    7317    7326    7338       1    7326    7332    7323    7335       1
    7323    7332    7326    7338       1    7320    7308    7314    7323       1
    7317    7326    7332    7341       1    7314    7305    7317    7329       1
    7314    7323    7332    7341       1    7311    7299    7308    7314       1
    7311    7299    7308    7320       1    7308    7314    7323    7335       1
    7305    7314    7308    7320       1    7305    7314    7323    7335       1
    7305    7317    7326    7338       1    7302    7284    7296    7305       1
    7296    7281    7299    7311       1    7296    7305    7317    7329       1
    7287    7263    7284    7296       1    7287    7263    7284    7302       1
    7281    7260    7275    7293       1    7281    7296    7284    7302       1
    7281    7299    7308    7320       1    7278    7257    7275    7293       1
    7272    7254    7266    7290       1    7269    7248    7266    7290       1
    7260    7245    7263    7287       1    7260    7275    7257    7278       1
    7260    7281    7299    7311       1    7257    7242    7254    7272       1
    7254    7242    7257    7278       1    7254    7266    7248    7269       1
    7251    7239    7248    7266       1    7251    7239    7248    7269       1
    7248    7266    7254    7272       1    7245    7236    7239    7251       1
    7245    7260    7275    7293       1    7245    7263    7284    7302       1
    7242    7236    7239    7251       1    7242    7254    7266    7290       1
    7242    7257    7275    7293       1    7239    7248    7266    7290       1
    7236    7239    7248    7269       1    7236    7242    7254    7272       1
    7236    7242    7257    7278       1    7236    7245    7263    7287       1
    7446    7434    7440    7449       1    7443    7431    7440    7449       1
    7437    7425    7434    7440       1    7437    7425    7434    7446       1
    7434    7440    7431    7443       1    7431    7440    7434    7446       1
    7428    7416    7422    7431       1    7425    7434    7440    7449       1
    7422    7413    7425    7437       1    7422    7431    7440    7449       1
    7419    7407    7416    7422       1    7419    7407    7416    7428       1
    7416    7422    7431    7443       1    7413    7422    7416    7428       1
    7413    7422    7431    7443       1    7413    7425    7434    7446       1
    7410    7392    7404    7413       1    7404    7389    7407    7419       1
    7404    7413    7425    7437       1    7395    7371    7392    7404       1
    7395    7371    7392    7410       1    7389    7368    7383    7401       1
    7389    7404    7392    7410       1    7389    7407    7416    7428       1
    7386    7365    7383    7401       1    7380    7362    7374    7398       1
    7377    7356    7374    7398       1    7368    7353    7371    7395       1
    7368    7383    7365    7386       1    7368    7389    7407    7419       1
    7365    7350    7362    7380       1    7362    7350    7365    7386       1
    7362    7374    7356    7377       1    7359    7347    7356    7374       1
    7359    7347    7356    7377       1    7356    7374    7362    7380       1
    7353    7344    7347    7359       1    7353    7368    7383    7401       1
    7353    7371    7392    7410       1    7350    7344    7347    7359       1
    7350    7362    7374    7398       1    7350    7365    7383    7401       1
    7347    7356    7374    7398       1    7344    7347    7356    7377       1
    7344    7350    7362    7380       1    7344    7350    7365    7386       1
    7344    7353    7371    7395       1    7554    7542    7548    7557       1
    7551    7539    7548    7557       1    7545    7533    7542    7548       1
    7545    7533    7542    7554       1    7542    7548    7539    7551       1
    7539    7548    7542    7554       1    7536    7524    7530    7539       1
    7533    7542    7548    7557       1    7530    7521    7533    7545       1
    7530    7539    7548    7557       1    7527    7515    7524    7530       1
    7527    7515    7524    7536       1    7524    7530    7539    7551       1
    7521    7530    7524    7536       1    7521    7530    7539    7551       1
    7521    7533    7542    7554       1    7518    7500    7512    7521       1
    7512    7497    7515    7527       1    7512    7521    7533    7545       1
    7503    7479    7500    7512       1    7503    7479    7500    7518       1
    7497    7476    7491    7509       1    7497    7512    7500    7518       1
    7497    7515    7524    7536       1    7494    7473    7491    7509       1
    7488    7470    7482    7506       1    7485    7464    7482    7506       1
    7476    7461    7479    7503       1    7476    7491    7473    7494       1
    7476    7497    7515    7527       1    7473    7458    7470    7488       1
    7470    7458    7473    7494       1    7470    7482    7464    7485       1
    7467    7455    7464    7482       1    7467    7455    7464    7485       1
    7464    7482    7470    7488       1    7461    7452    7455    7467       1
    7461    7476    7491    7509       1    7461    7479    7500    7518       1
    7458    7452    7455    7467       1    7458    7470    7482    7506       1
    7458    7473    7491    7509       1    7455    7464    7482    7506       1
    7452    7455    7464    7485       1    7452    7458    7470    7488       1
    7452    7458    7473    7494       1    7452    7461    7479    7503       1
    7662    7650    7656    7665       1    7659    7647    7656    7665       1
    7653    7641    7650    7656       1    7653    7641    7650    7662       1
    7650    7656    7647    7659       1    7647    7656    7650    7662       1
    7644    7632    7638    7647       1    7641    7650    7656    7665       1
    7638    7629    7641    7653       1    7638    7647    7656    7665       1
    7635    7623    7632    7638       1    7635    7623    7632    7644       1
    7632    7638    7647    7659       1    7629    7638    7632    7644       1
    7629    7638    7647    7659       1    7629    7641    7650    7662       1
    7626    7608    7620    7629       1    7620    7605    7623    7635       1
    7620    7629    7641    7653       1    7611    7587    7608    7620       1
    7611    7587    7608    7626       1    7605    7584    7599    7617       1
    7605    7620    7608    7626       1    7605    7623    7632    7644       1
    7602    7581    7599    7617       1    7596    7578    7590    7614       1
    7593    7572    7590    7614       1    7584    7569    7587    7611       1
    7584    7599    7581    7602       1    7584    7605    7623    7635       1
    7581    7566    7578    7596       1    7578    7566    7581    7602       1
    7578    7590    7572    7593       1    7575    7563    7572    7590       1
    7575    7563    7572    7593       1    7572    7590    7578    7596       1
    7569    7560    7563    7575       1    7569    7584    7599    7617       1
    7569    7587    7608    7626       1    7566    7560    7563    7575       1
    7566    7578    7590    7614       1    7566    7581    7599    7617       1
    7563    7572    7590    7614       1    7560    7563    7572    7593       1
    7560    7566    7578    7596       1    7560    7566    7581    7602       1
    7560    7569    7587    7611       1    7770    7758    7764    7773       1
    7767    7755    7764    7773       1    7761    7749    7758    7764       1
    7761    7749    7758    7770       1    7758    7764    7755    7767       1
    7755    7764    7758    7770       1    7752    7740    7746    7755       1
    7749    7758    7764    7773       1    7746    7737    7749    7761       1
    7746    7755    7764    7773       1    7743    7731    7740    7746       1
    7743    7731    7740    7752       1    7740    7746    7755    7767       1
    7737    7746    7740    7752       1    7737    7746    7755    7767       1
    7737    7749    7758    7770       1    7734    7716    7728    7737       1
    7728    7713    7731    7743       1    7728    7737    7749    7761       1
    7719    7695    7716    7728       1    7719    7695    7716    7734       1
    7713    7692    7707    7725       1    7713    7728    7716    7734       1
    7713    7731    7740    7752       1    7710    7689    7707    7725       1
    7704    7686    7698    7722       1    7701    7680    7698    7722       1
    7692    7677    7695    7719       1    7692    7707    7689    7710       1
    7692    7713    7731    7743       1    7689    7674    7686    7704       1
    7686    7674    7689    7710       1    7686    7698    7680    7701       1
    7683    7671    7680    7698       1    7683    7671    7680    7701       1
    7680    7698    7686    7704       1    7677    7668    7671    7683       1
    7677    7692    7707    7725       1    7677    7695    7716    7734       1
    7674    7668    7671    7683       1    7674    7686    7698    7722       1
    7674    7689    7707    7725       1    7671    7680    7698    7722       1
    7668    7671    7680    7701       1    7668    7674    7686    7704       1
    7668    7674    7689    7710       1    7668    7677    7695    7719       1
    7878    7866    7872    7881       1    7875    7863    7872    7881       1
    7869    7857    7866    7872       1    7869    7857    7866    7878       1
    7866    7872    7863    7875       1    7863    7872    7866    7878       1
    7860    7848    7854    7863       1    7857    7866    7872    7881       1
    7854    7845    7857    7869       1    7854    7863    7872    7881       1
    7851    7839    7848    7854       1    7851    7839    7848    7860       1
    7848    7854    7863    7875       1    7845    7854    7848    7860       1
    7845    7854    7863    7875       1    7845    7857    7866    7878       1
    7842    7824    7836    7845       1    7836    7821    7839    7851       1
    7836    7845    7857    7869       1    7827    7803    7824    7836       1
    7827    7803    7824    7842       1    7821    7800    7815    7833       1
    7821    7836    7824    7842       1    7821    7839    7848    7860       1
    7818    7797    7815    7833       1    7812    7794    7806    7830       1
    7809    7788    7806    7830       1    7800    7785    7803    7827       1
    7800    7815    7797    7818       1    7800    7821    7839    7851       1
    7797    7782    7794    7812       1    7794    7782    7797    7818       1
    7794    7806    7788    7809       1    7791    7779    7788    7806       1
    7791    7779    7788    7809       1    7788    7806    7794    7812       1
    7785    7776    7779    7791       1    7785    7800    7815    7833       1
    7785    7803    7824    7842       1    7782    7776    7779    7791       1
    7782    7794    7806    7830       1    7782    7797    7815    7833       1
    7779    7788    7806    7830       1    7776    7779    7788    7809       1
    7776    7782    7794    7812       1    7776    7782    7797    7818       1
    7776    7785    7803    7827       1    7986    7974    7980    7989       1
    7983    7971    7980    7989       1    7977    7965    7974    7980       1
    7977    7965    7974    7986       1    7974    7980    7971    7983       1
    7971    7980    7974    7986       1    7968    7956    7962    7971       1
    7965    7974    7980    7989       1    7962    7953    7965    7977       1
    7962    7971    7980    7989       1    7959    7947    7956    7962       1
    7959    7947    7956    7968       1    7956    7962    7971    7983       1
    7953    7962    7956    7968       1    7953    7962    7971    7983       1
    7953    7965    7974    7986       1    7950    7932    7944    7953       1
    7944    7929    7947    7959       1    7944    7953    7965    7977       1
    7935    7911    7932    7944       1    7935    7911    7932    7950       1
    7929    7908    7923    7941       1    7929    7944    7932    7950       1
    7929    7947    7956    7968       1    7926    7905    7923    7941       1
    7920    7902    7914    7938       1    7917    7896    7914    7938       1
    7908    7893    7911    7935       1    7908    7923    7905    7926       1
    7908    7929    7947    7959       1    7905    7890    7902    7920       1
    7902    7890    7905    7926       1    7902    7914    7896    7917       1
    7899    7887    7896    7914       1    7899    7887    7896    7917       1
    7896    7914    7902    7920       1    7893    7884    7887    7899       1
    7893    7908    7923    7941       1    7893    7911    7932    7950       1
    7890    7884    7887    7899       1    7890    7902    7914    7938       1
    7890    7905    7923    7941       1    7887    7896    7914    7938       1
    7884    7887    7896    7917       1    7884    7890    7902    7920       1
    7884    7890    7905    7926       1    7884    7893    7911    7935       1
    8094    8082    8088    8097       1    8091    8079    8088    8097       1
    8085    8073    8082    8088       1    8085    8073    8082    8094       1
    8082    8088    8079    8091       1    8079    8088    8082    8094       1
    8076    8064    8070    8079       1    8073    8082    8088    8097       1
    8070    8061    8073    8085       1    8070    8079    8088    8097       1
    8067    8055    8064    8070       1    8067    8055    8064    8076       1
    8064    8070    8079    8091       1    8061    8070    8064    8076       1
    8061    8070    8079    8091       1    8061    8073    8082    8094       1
    8058    8040    8052    8061       1    8052    8037    8055    8067       1
    8052    8061    8073    8085       1    8043    8019    8040    8052       1
    8043    8019    8040    8058       1    8037    8016    8031    8049       1
    8037    8052    8040    8058       1    8037    8055    8064    8076       1
    8034    8013    8031    8049       1    8028    8010    8022    8046       1
    8025    8004    8022    8046       1    8016    8001    8019    8043       1
    8016    8031    8013    8034       1    8016    8037    8055    8067       1
    8013    7998    8010    8028       1    8010    7998    8013    8034       1
    8010    8022    8004    8025       1    8007    7995    8004    8022       1
    8007    7995    8004    8025       1    8004    8022    8010    8028       1
    8001    7992    7995    8007       1    8001    8016    8031    8049       1
    8001    8019    8040    8058       1    7998    7992    7995    8007       1
    7998    8010    8022    8046       1    7998    8013    8031    8049       1
    7995    8004    8022    8046       1    7992    7995    8004    8025       1
    7992    7998    8010    8028       1    7992    7998    8013    8034       1
    7992    8001    8019    8043       1    8202    8190    8196    8205       1
    8199    8187    8196    8205       1    8193    8181    8190    8196       1
    8193    8181    8190    8202       1    8190    8196    8187    8199       1
    8187    8196    8190    8202       1    8184    8172    8178    8187       1
    8181    8190    8196    8205       1    8178    8169    8181    8193       1
    8178    8187    8196    8205       1    8175    8163    8172    8178       1
    8175    8163    8172    8184       1    8172    8178    8187    8199       1
    8169    8178    8172    8184       1    8169    8178    8187    8199       1
    8169    8181    8190    8202       1    8166    8148    8160    8169       1
    8160    8145    8163    8175       1    8160    8169    8181    8193       1
    8151    8127    8148    8160       1    8151    8127    8148    8166       1
    8145    8124    8139    8157       1    8145    8160    8148    8166       1
    8145    8163    8172    8184       1    8142    8121    8139    8157       1
    8136    8118    8130    8154       1    8133    8112    8130    8154       1
    8124    8109    8127    8151       1    8124    8139    8121    8142       1
    8124    8145    8163    8175       1    8121    8106    8118    8136       1
    8118    8106    8121    8142       1    8118    8130    8112    8133       1
    8115    8103    8112    8130       1    8115    8103    8112    8133       1
    8112    8130    8118    8136       1    8109    8100    8103    8115       1
    8109    8124    8139    8157       1    8109    8127    8148    8166       1
    8106    8100    8103    8115       1    8106    8118    8130    8154       1
    8106    8121    8139    8157       1    8103    8112    8130    8154       1
    8100    8103    8112    8133       1    8100    8106    8118    8136       1
    8100    8106    8121    8142       1    8100    8109    8127    8151       1
    8310    8298    8304    8313       1    8307    8295    8304    8313       1
    8301    8289    8298    8304       1    8301    8289    8298    8310       1
    8298    8304    8295    8307       1    8295    8304    8298    8310       1
    8292    8280    8286    8295       1    8289    8298    8304    8313       1
    8286    8277    8289    8301       1    8286    8295    8304    8313       1
    8283    8271    8280    8286       1    8283    8271    8280    8292       1
    8280    8286    8295    8307       1    8277    8286    8280    8292       1
    8277    8286    8295    8307       1    8277    8289    8298    8310       1
    8274    8256    8268    8277       1    8268    8253    8271    8283       1
    8268    8277    8289    8301       1    8259    8235    8256    8268       1
    8259    8235    8256    8274       1    8253    8232    8247    8265       1
    8253    8268    8256    8274       1    8253    8271    8280    8292       1
    8250    8229    8247    8265       1    8244    8226    8238    8262       1
    8241    8220    8238    8262       1    8232    8217    8235    8259       1
    8232    8247    8229    8250       1    8232    8253    8271    8283       1
    8229    8214    8226    8244       1    8226    8214    8229    8250       1
    8226    8238    8220    8241       1    8223    8211    8220    8238       1
    8223    8211    8220    8241       1    8220    8238    8226    8244       1
    8217    8208    8211    8223       1    8217    8232    8247    8265       1
    8217    8235    8256    8274       1    8214    8208    8211    8223       1
    8214    8226    8238    8262       1    8214    8229    8247    8265       1
    8211    8220    8238    8262       1    8208    8211    8220    8241       1
    8208    8214    8226    8244       1    8208    8214    8229    8250       1
    8208    8217    8235    8259       1    8418    8406    8412    8421       1
    8415    8403    8412    8421       1    8409    8397    8406    8412       1
    8409    8397    8406    8418       1    8406    8412    8403    8415       1
    8403    8412    8406    8418       1    8400    8388    8394    8403       1
    8397    8406    8412    8421       1    8394    8385    8397    8409       1
    8394    8403    8412    8421       1    8391    8379    8388    8394       1
    8391    8379    8388    8400       1    8388    8394    8403    8415       1
    8385    8394    8388    8400       1    8385    8394    8403    8415       1
    8385    8397    8406    8418       1    8382    8364    8376    8385       1
    8376    8361    8379    8391       1    8376    8385    8397    8409       1
    8367    8343    8364    8376       1    8367    8343    8364    8382       1
    8361    8340    8355    8373       1    8361    8376    8364    8382       1
    8361    8379    8388    8400       1    8358    8337    8355    8373       1
    8352    8334    8346    8370       1    8349    8328    8346    8370       1
    8340    8325    8343    8367       1    8340    8355    8337    8358       1
    8340    8361    8379    8391       1    8337    8322    8334    8352       1
    8334    8322    8337    8358       1    8334    8346    8328    8349       1
    8331    8319    8328    8346       1    8331    8319    8328    8349       1
    8328    8346    8334    8352       1    8325    8316    8319    8331       1
    8325    8340    8355    8373       1    8325    8343    8364    8382       1
    8322    8316    8319    8331       1    8322    8334    8346    8370       1
    8322    8337    8355    8373       1    8319    8328    8346    8370       1
    8316    8319    8328    8349       1    8316    8322    8334    8352       1
    8316    8322    8337    8358       1    8316    8325    8343    8367       1
    8526    8514    8520    8529       1    8523    8511    8520    8529       1
    8517    8505    8514    8520       1    8517    8505    8514    8526       1
    8514    8520    8511    8523       1    8511    8520    8514    8526       1
    8508    8496    8502    8511       1    8505    8514    8520    8529       1
    8502    8493    8505    8517       1    8502    8511    8520    8529       1
    8499    8487    8496    8502       1    8499    8487    8496    8508       1
    8496    8502    8511    8523       1    8493    8502    8496    8508       1
    8493    8502    8511    8523       1    8493    8505    8514    8526       1
    8490    8472    8484    8493       1    8484    8469    8487    8499       1
    8484    8493    8505    8517       1    8475    8451    8472    8484       1
    8475    8451    8472    8490       1    8469    8448    8463    8481       1
    8469    8484    8472    8490       1    8469    8487    8496    8508       1
    8466    8445    8463    8481       1    8460    8442    8454    8478       1
    8457    8436    8454    8478       1    8448    8433    8451    8475       1
    8448    8463    8445    8466       1    8448    8469    8487    8499       1
    8445    8430    8442    8460       1    8442    8430    8445    8466       1
    8442    8454    8436    8457       1    8439    8427    8436    8454       1
    8439    8427    8436    8457       1    8436    8454    8442    8460       1
    8433    8424    8427    8439       1    8433    8448    8463    8481       1
    8433    8451    8472    8490       1    8430    8424    8427    8439       1
    8430    8442    8454    8478       1    8430    8445    8463    8481       1
    8427    8436    8454    8478       1    8424    8427    8436    8457       1
    8424    8430    8442    8460       1    8424    8430    8445    8466       1
    8424    8433    8451    8475       1    8634    8622    8628    8637       1
    8631    8619    8628    8637       1    8625    8613    8622    8628       1
    8625    8613    8622    8634       1    8622    8628    8619    8631       1
    8619    8628    8622    8634       1    8616    8604    8610    8619       1
    8613    8622    8628    8637       1    8610    8601    8613    8625       1
    8610    8619    8628    8637       1    8607    8595    8604    8610       1
    8607    8595    8604    8616       1    8604    8610    8619    8631       1
    8601    8610    8604    8616       1    8601    8610    8619    8631       1
    8601    8613    8622    8634       1    8598    8580    8592    8601       1
    8592    8577    8595    8607       1    8592    8601    8613    8625       1
    8583    8559    8580    8592       1    8583    8559    8580    8598       1
    8577    8556    8571    8589       1    8577    8592    8580    8598       1
    8577    8595    8604    8616       1    8574    8553    8571    8589       1
    8568    8550    8562    8586       1    8565    8544    8562    8586       1
    8556    8541    8559    8583       1    8556    8571    8553    8574       1
    8556    8577    8595    8607       1    8553    8538    8550    8568       1
    8550    8538    8553    8574       1    8550    8562    8544    8565       1
    8547    8535    8544    8562       1    8547    8535    8544    8565       1
    8544    8562    8550    8568       1    8541    8532    8535    8547       1
    8541    8556    8571    8589       1    8541    8559    8580    8598       1
    8538    8532    8535    8547       1    8538    8550    8562    8586       1
    8538    8553    8571    8589       1    8535    8544    8562    8586       1
    8532    8535    8544    8565       1    8532    8538    8550    8568       1
    8532    8538    8553    8574       1    8532    8541    8559    8583       1
    8742    8730    8736    8745       1    8739    8727    8736    8745       1
    8733    8721    8730    8736       1    8733    8721    8730    8742       1
    8730    8736    8727    8739       1    8727    8736    8730    8742       1
    8724    8712    8718    8727       1    8721    8730    8736    8745       1
    8718    8709    8721    8733       1    8718    8727    8736    8745       1
    8715    8703    8712    8718       1    8715    8703    8712    8724       1
    8712    8718    8727    8739       1    8709    8718    8712    8724       1
    8709    8718    8727    8739       1    8709    8721    8730    8742       1
    8706    8688    8700    8709       1    8700    8685    8703    8715       1
    8700    8709    8721    8733       1    8691    8667    8688    8700       1
    8691    8667    8688    8706       1    8685    8664    8679    8697       1
    8685    8700    8688    8706       1    8685    8703    8712    8724       1
    8682    8661    8679    8697       1    8676    8658    8670    8694       1
    8673    8652    8670    8694       1    8664    8649    8667    8691       1
    8664    8679    8661    8682       1    8664    8685    8703    8715       1
    8661    8646    8658    8676       1    8658    8646    8661    8682       1
    8658    8670    8652    8673       1    8655    8643    8652    8670       1
    8655    8643    8652    8673       1    8652    8670    8658    8676       1
    8649    8640    8643    8655       1    8649    8664    8679    8697       1
    8649    8667    8688    8706       1    8646    8640    8643    8655       1
    8646    8658    8670    8694       1    8646    8661    8679    8697       1
    8643    8652    8670    8694       1    8640    8643    8652    8673       1
    8640    8646    8658    8676       1    8640    8646    8661    8682       1
    8640    8649    8667    8691       1    8850    8838    8844    8853       1
    8847    8835    8844    8853       1    8841    8829    8838    8844       1
    8841    8829    8838    8850       1    8838    8844    8835    8847       1
    8835    8844    8838    8850       1    8832    8820    8826    8835       1
    8829    8838    8844    8853       1    8826    8817    8829    8841       1
    8826    8835    8844    8853       1    8823    8811    8820    8826       1
    8823    8811    8820    8832       1    8820    8826    8835    8847       1
    8817    8826    8820    8832       1    8817    8826    8835    8847       1
    8817    8829    8838    8850       1    8814    8796    8808    8817       1
    8808    8793    8811    8823       1    8808    8817    8829    8841       1
    8799    8775    8796    8808       1    8799    8775    8796    8814       1
    8793    8772    8787    8805       1    8793    8808    8796    8814       1
    8793    8811    8820    8832       1    8790    8769    8787    8805       1
    8784    8766    8778    8802       1    8781    8760    8778    8802       1
    8772    8757    8775    8799       1    8772    8787    8769    8790       1
    8772    8793    8811    8823       1    8769    8754    8766    8784       1
    8766    8754    8769    8790       1    8766    8778    8760    8781       1
    8763    8751    8760    8778       1    8763    8751    8760    8781       1
    8760    8778    8766    8784       1    8757    8748    8751    8763       1
    8757    8772    8787    8805       1    8757    8775    8796    8814       1
    8754    8748    8751    8763       1    8754    8766    8778    8802       1
    8754    8769    8787    8805       1    8751    8760    8778    8802       1
    8748    8751    8760    8781       1    8748    8754    8766    8784       1
    8748    8754    8769    8790       1    8748    8757    8775    8799       1
    8958    8946    8952    8961       1    8955    8943    8952    8961       1
    8949    8937    8946    8952       1    8949    8937    8946    8958       1
    8946    8952    8943    8955       1    8943    8952    8946    8958       1
    8940    8928    8934    8943       1    8937    8946    8952    8961       1
    8934    8925    8937    8949       1    8934    8943    8952    8961       1
    8931    8919    8928    8934       1    8931    8919    8928    8940       1
    8928    8934    8943    8955       1    8925    8934    8928    8940       1
    8925    8934    8943    8955       1    8925    8937    8946    8958       1
    8922    8904    8916    8925       1    8916    8901    8919    8931       1
    8916    8925    8937    8949       1    8907    8883    8904    8916       1
    8907    8883    8904    8922       1    8901    8880    8895    8913       1
    8901    8916    8904    8922       1    8901    8919    8928    8940       1
    8898    8877    8895    8913       1    8892    8874    8886    8910       1
    8889    8868    8886    8910       1    8880    8865    8883    8907       1
    8880    8895    8877    8898       1    8880    8901    8919    8931       1
    8877    8862    8874    8892       1    8874    8862    8877    8898       1
    8874    8886    8868    8889       1    8871    8859    8868    8886       1
    8871    8859    8868    8889       1    8868    8886    8874    8892       1
    8865    8856    8859    8871       1    8865    8880    8895    8913       1
    8865    8883    8904    8922       1    8862    8856    8859    8871       1
    8862    8874    8886    8910       1    8862    8877    8895    8913       1
    8859    8868    8886    8910       1    8856    8859    8868    8889       1
    8856    8862    8874    8892       1    8856    8862    8877    8898       1
    8856    8865    8883    8907       1    9066    9054    9060    9069       1
    9063    9051    9060    9069       1    9057    9045    9054    9060       1
    9057    9045    9054    9066       1    9054    9060    9051    9063       1
    9051    9060    9054    9066       1    9048    9036    9042    9051       1
    9045    9054    9060    9069       1    9042    9033    9045    9057       1
    9042    9051    9060    9069       1    9039    9027    9036    9042       1
    9039    9027    9036    9048       1    9036    9042    9051    9063       1
    9033    9042    9036    9048       1    9033    9042    9051    9063       1
    9033    9045    9054    9066       1    9030    9012    9024    9033       1
    9024    9009    9027    9039       1    9024    9033    9045    9057       1
    9015    8991    9012    9024       1    9015    8991    9012    9030       1
    9009    8988    9003    9021       1    9009    9024    9012    9030       1
    9009    9027    9036    9048       1    9006    8985    9003    9021       1
    9000    8982    8994    9018       1    8997    8976    8994    9018       1
    8988    8973    8991    9015       1    8988    9003    8985    9006       1
    8988    9009    9027    9039       1    8985    8970    8982    9000       1
    8982    8970    8985    9006       1    8982    8994    8976    8997       1
    8979    8967    8976    8994       1    8979    8967    8976    8997       1
    8976    8994    8982    9000       1    8973    8964    8967    8979       1
    8973    8988    9003    9021       1    8973    8991    9012    9030       1
    8970    8964    8967    8979       1    8970    8982    8994    9018       1
    8970    8985    9003    9021       1    8967    8976    8994    9018       1
    8964    8967    8976    8997       1    8964    8970    8982    9000       1
    8964    8970    8985    9006       1    8964    8973    8991    9015       1
    9174    9162    9168    9177       1    9171    9159    9168    9177       1
    9165    9153    9162    9168       1    9165    9153    9162    9174       1
    9162    9168    9159    9171       1    9159    9168    9162    9174       1
    9156    9144    9150    9159       1    9153    9162    9168    9177       1
    9150    9141    9153    9165       1    9150    9159    9168    9177       1
    9147    9135    9144    9150       1    9147    9135    9144    9156       1
    9144    9150    9159    9171       1    9141    9150    9144    9156       1
    9141    9150    9159    9171       1    9141    9153    9162    9174       1
    9138    9120    9132    9141       1    9132    9117    9135    9147       1
    9132    9141    9153    9165       1    9123    9099    9120    9132       1
    9123    9099    9120    9138       1    9117    9096    9111    9129       1
    9117    9132    9120    9138       1    9117    9135    9144    9156       1
    9114    9093    9111    9129       1    9108    9090    9102    9126       1
    9105    9084    9102    9126       1    9096    9081    9099    9123       1
    9096    9111    9093    9114       1    9096    9117    9135    9147       1
    9093    9078    9090    9108       1    9090    9078    9093    9114       1
    9090    9102    9084    9105       1    9087    9075    9084    9102       1
    9087    9075    9084    9105       1    9084    9102    9090    9108       1
    9081    9072    9075    9087       1    9081    9096    9111    9129       1
    9081    9099    9120    9138       1    9078    9072    9075    9087       1
    9078    9090    9102    9126       1    9078    9093    9111    9129       1
    9075    9084    9102    9126       1    9072    9075    9084    9105       1
    9072    9078    9090    9108       1    9072    9078    9093    9114       1
    9072    9081    9099    9123       1    9282    9270    9276    9285       1
    9279    9267    9276    9285       1    9273    9261    9270    9276       1
    9273    9261    9270    9282       1    9270    9276    9267    9279       1
    9267    9276    9270    9282       1    9264    9252    9258    9267       1
    9261    9270    9276    9285       1    9258    9249    9261    9273       1
    9258    9267    9276    9285       1    9255    9243    9252    9258       1
    9255    9243    9252    9264       1    9252    9258    9267    9279       1
    9249    9258    9252    9264       1    9249    9258    9267    9279       1
    9249    9261    9270    9282       1    9246    9228    9240    9249       1
    9240    9225    9243    9255       1    9240    9249    9261    9273       1
    9231    9207    9228    9240       1    9231    9207    9228    9246       1
    9225    9204    9219    9237       1    9225    9240    9228    9246       1
    9225    9243    9252    9264       1    9222    9201    9219    9237       1
    9216    9198    9210    9234       1    9213    9192    9210    9234       1
    9204    9189    9207    9231       1    9204    9219    9201    9222       1
    9204    9225    9243    9255       1    9201    9186    9198    9216       1
    9198    9186    9201    9222       1    9198    9210    9192    9213       1
    9195    9183    9192    9210       1    9195    9183    9192    9213       1
    9192    9210    9198    9216       1    9189    9180    9183    9195       1
    9189    9204    9219    9237       1    9189    9207    9228    9246       1
    9186    9180    9183    9195       1    9186    9198    9210    9234       1
    9186    9201    9219    9237       1    9183    9192    9210    9234       1
    9180    9183    9192    9213       1    9180    9186    9198    9216       1
    9180    9186    9201    9222       1    9180    9189    9207    9231       1
    9390    9378    9384    9393       1    9387    9375    9384    9393       1
    9381    9369    9378    9384       1    9381    9369    9378    9390       1
    9378    9384    9375    9387       1    9375    9384    9378    9390       1
    9372    9360    9366    9375       1    9369    9378    9384    9393       1
    9366    9357    9369    9381       1    9366    9375    9384    9393       1
    9363    9351    9360    9366       1    9363    9351    9360    9372       1
    9360    9366    9375    9387       1    9357    9366    9360    9372       1
    9357    9366    9375    9387       1    9357    9369    9378    9390       1
    9354    9336    9348    9357       1    9348    9333    9351    9363       1
    9348    9357    9369    9381       1    9339    9315    9336    9348       1
    9339    9315    9336    9354       1    9333    9312    9327    9345       1
    9333    9348    9336    9354       1    9333    9351    9360    9372       1
    9330    9309    9327    9345       1    9324    9306    9318    9342       1
    9321    9300    9318    9342       1    9312    9297    9315    9339       1
    9312    9327    9309    9330       1    9312    9333    9351    9363       1
    9309    9294    9306    9324       1    9306    9294    9309    9330       1
    9306    9318    9300    9321       1    9303    9291    9300    9318       1
    9303    9291    9300    9321       1    9300    9318    9306    9324       1
    9297    9288    9291    9303       1    9297    9312    9327    9345       1
    9297    9315    9336    9354       1    9294    9288    9291    9303       1
    9294    9306    9318    9342       1    9294    9309    9327    9345       1
    9291    9300    9318    9342       1    9288    9291    9300    9321       1
    9288    9294    9306    9324       1    9288    9294    9309    9330       1
    9288    9297    9315    9339       1    9498    9486    9492    9501       1
    9495    9483    9492    9501       1    9489    9477    9486    9492       1
    9489    9477    9486    9498       1    9486    9492    9483    9495       1
    9483    9492    9486    9498       1    9480    9468    9474    9483       1
    9477    9486    9492    9501       1    9474    9465    9477    9489       1
    9474    9483    9492    9501       1    9471    9459    9468    9474       1
    9471    9459    9468    9480       1    9468    9474    9483    9495       1
    9465    9474    9468    9480       1    9465    9474    9483    9495       1
    9465    9477    9486    9498       1    9462    9444    9456    9465       1
    9456    9441    9459    9471       1    9456    9465    9477    9489       1
    9447    9423    9444    9456       1    9447    9423    9444    9462       1
    9441    9420    9435    9453       1    9441    9456    9444    9462       1
    9441    9459    9468    9480       1    9438    9417    9435    9453       1
    9432    9414    9426    9450       1    9429    9408    9426    9450       1
    9420    9405    9423    9447       1    9420    9435    9417    9438       1
    9420    9441    9459    9471       1    9417    9402    9414    9432       1
    9414    9402    9417    9438       1    9414    9426    9408    9429       1
    9411    9399    9408    9426       1    9411    9399    9408    9429       1
    9408    9426    9414    9432       1    9405    9396    9399    9411       1
    9405    9420    9435    9453       1    9405    9423    9444    9462       1
    9402    9396    9399    9411       1    9402    9414    9426    9450       1
    9402    9417    9435    9453       1    9399    9408    9426    9450       1
    9396    9399    9408    9429       1    9396    9402    9414    9432       1
    9396    9402    9417    9438       1    9396    9405    9423    9447       1
    9606    9594    9600    9609       1    9603    9591    9600    9609       1
    9597    9585    9594    9600       1    9597    9585    9594    9606       1
    9594    9600    9591    9603       1    9591    9600    9594    9606       1
    9588    9576    9582    9591       1    9585    9594    9600    9609       1
    9582    9573    9585    9597       1    9582    9591    9600    9609       1
    9579    9567    9576    9582       1    9579    9567    9576    9588       1
    9576    9582    9591    9603       1    9573    9582    9576    9588       1
    9573    9582    9591    9603       1    9573    9585    9594    9606       1
    9570    9552    9564    9573       1    9564    9549    9567    9579       1
    9564    9573    9585    9597       1    9555    9531    9552    9564       1
    9555    9531    9552    9570       1    9549    9528    9543    9561       1
    9549    9564    9552    9570       1    9549    9567    9576    9588       1
    9546    9525    9543    9561       1    9540    9522    9534    9558       1
    9537    9516    9534    9558       1    9528    9513    9531    9555       1
    9528    9543    9525    9546       1    9528    9549    9567    9579       1
    9525    9510    9522    9540       1    9522    9510    9525    9546       1
    9522    9534    9516    9537       1    9519    9507    9516    9534       1
    9519    9507    9516    9537       1    9516    9534    9522    9540       1
    9513    9504    9507    9519       1    9513    9528    9543    9561       1
    9513    9531    9552    9570       1    9510    9504    9507    9519       1
    9510    9522    9534    9558       1    9510    9525    9543    9561       1
    9507    9516    9534    9558       1    9504    9507    9516    9537       1
    9504    9510    9522    9540       1    9504    9510    9525    9546       1
    9504    9513    9531    9555       1    9714    9702    9708    9717       1
    9711    9699    9708    9717       1    9705    9693    9702    9708       1
    9705    9693    9702    9714       1    9702    9708    9699    9711       1
    9699    9708    9702    9714       1    9696    9684    9690    9699       1
    9693    9702    9708    9717       1    9690    9681    9693    9705       1
    9690    9699    9708    9717       1    9687    9675    9684    9690       1
    9687    9675    9684    9696       1    9684    9690    9699    9711       1
    9681    9690    9684    9696       1    9681    9690    9699    9711       1
    9681    9693    9702    9714       1    9678    9660    9672    9681       1
    9672    9657    9675    9687       1    9672    9681    9693    9705       1
    9663    9639    9660    9672       1    9663    9639    9660    9678       1
    9657    9636    9651    9669       1    9657    9672    9660    9678       1
    9657    9675    9684    9696       1    9654    9633    9651    9669       1
    9648    9630    9642    9666       1    9645    9624    9642    9666       1
    9636    9621    9639    9663       1    9636    9651    9633    9654       1
    9636    9657    9675    9687       1    9633    9618    9630    9648       1
    9630    9618    9633    9654       1    9630    9642    9624    9645       1
    9627    9615    9624    9642       1    9627    9615    9624    9645       1
    9624    9642    9630    9648       1    9621    9612    9615    9627       1
    9621    9636    9651    9669       1    9621    9639    9660    9678       1
    9618    9612    9615    9627       1    9618    9630    9642    9666       1
    9618    9633    9651    9669       1    9615    9624    9642    9666       1
    9612    9615    9624    9645       1    9612    9618    9630    9648       1
    9612    9618    9633    9654       1    9612    9621    9639    9663       1
    9822    9810    9816    9825       1    9819    9807    9816    9825       1
    9813    9801    9810    9816       1    9813    9801    9810    9822       1
    9810    9816    9807    9819       1    9807    9816    9810    9822       1
    9804    9792    9798    9807       1    9801    9810    9816    9825       1
    9798    9789    9801    9813       1    9798    9807    9816    9825       1
    9795    9783    9792    9798       1    9795    9783    9792    9804       1
    9792    9798    9807    9819       1    9789    9798    9792    9804       1
    9789    9798    9807    9819       1    9789    9801    9810    9822       1
    9786    9768    9780    9789       1    9780    9765    9783    9795       1
    9780    9789    9801    9813       1    9771    9747    9768    9780       1
    9771    9747    9768    9786       1    9765    9744    9759    9777       1
    9765    9780    9768    9786       1    9765    9783    9792    9804       1
    9762    9741    9759    9777       1    9756    9738    9750    9774       1
    9753    9732    9750    9774       1    9744    9729    9747    9771       1
    9744    9759    9741    9762       1    9744    9765    9783    9795       1
    9741    9726    9738    9756       1    9738    9726    9741    9762       1
    9738    9750    9732    9753       1    9735    9723    9732    9750       1
    9735    9723    9732    9753       1    9732    9750    9738    9756       1
    9729    9720    9723    9735       1    9729    9744    9759    9777       1
    9729    9747    9768    9786       1    9726    9720    9723    9735       1
    9726    9738    9750    9774       1    9726    9741    9759    9777       1
    9723    9732    9750    9774       1    9720    9723    9732    9753       1
    9720    9726    9738    9756       1    9720    9726    9741    9762       1
    9720    9729    9747    9771       1    9930    9918    9924    9933       1
    9927    9915    9924    9933       1    9921    9909    9918    9924       1
    9921    9909    9918    9930       1    9918    9924    9915    9927       1
    9915    9924    9918    9930       1    9912    9900    9906    9915       1
    9909    9918    9924    9933       1    9906    9897    9909    9921       1
    9906    9915    9924    9933       1    9903    9891    9900    9906       1
    9903    9891    9900    9912       1    9900    9906    9915    9927       1
    9897    9906    9900    9912       1    9897    9906    9915    9927       1
    9897    9909    9918    9930       1    9894    9876    9888    9897       1
    9888    9873    9891    9903       1    9888    9897    9909    9921       1
    9879    9855    9876    9888       1    9879    9855    9876    9894       1
    9873    9852    9867    9885       1    9873    9888    9876    9894       1
    9873    9891    9900    9912       1    9870    9849    9867    9885       1
    9864    9846    9858    9882       1    9861    9840    9858    9882       1
    9852    9837    9855    9879       1    9852    9867    9849    9870       1
    9852    9873    9891    9903       1    9849    9834    9846    9864       1
    9846    9834    9849    9870       1    9846    9858    9840    9861       1
    9843    9831    9840    9858       1    9843    9831    9840    9861       1
    9840    9858    9846    9864       1    9837    9828    9831    9843       1
    9837    9852    9867    9885       1    9837    9855    9876    9894       1
    9834    9828    9831    9843       1    9834    9846    9858    9882       1
    9834    9849    9867    9885       1    9831    9840    9858    9882       1
    9828    9831    9840    9861       1    9828    9834    9846    9864       1
    9828    9834    9849    9870       1    9828    9837    9855    9879       1
   10038   10026   10032   10041       1   10035   10023   10032   10041       1
   10029   10017   10026   10032       1   10029   10017   10026   10038       1
   10026   10032   10023   10035       1   10023   10032   10026   10038       1
   10020   10008   10014   10023       1   10017   10026   10032   10041       1
   10014   10005   10017   10029       1   10014   10023   10032   10041       1
   10011    9999   10008   10014       1   10011    9999   10008   10020       1
   10008   10014   10023   10035       1   10005   10014   10008   10020       1
   10005   10014   10023   10035       1   10005   10017   10026   10038       1
   10002    9984    9996   10005       1    9996    9981    9999   10011       1
    9996   10005   10017   10029       1    9987    9963    9984    9996       1
    9987    9963    9984   10002       1    9981    9960    9975    9993       1
    9981    9996    9984   10002       1    9981    9999   10008   10020       1
    9978    9957    9975    9993       1    9972    9954    9966    9990       1
    9969    9948    9966    9990       1    9960    9945    9963    9987       1
    9960    9975    9957    9978       1    9960    9981    9999   10011       1
    9957    9942    9954    9972       1    9954    9942    9957    9978       1
    9954    9966    9948    9969       1    9951    9939    9948    9966       1
    9951    9939    9948    9969       1    9948    9966    9954    9972       1
    9945    9936    9939    9951       1    9945    9960    9975    9993       1
    9945    9963    9984   10002       1    9942    9936    9939    9951       1
    9942    9954    9966    9990       1    9942    9957    9975    9993       1
    9939    9948    9966    9990       1    9936    9939    9948    9969       1
    9936    9942    9954    9972       1    9936    9942    9957    9978       1
    9936    9945    9963    9987       1   10146   10134   10140   10149       1
   10143   10131   10140   10149       1   10137   10125   10134   10140       1
   10137   10125   10134   10146       1   10134   10140   10131   10143       1
   10131   10140   10134   10146       1   10128   10116   10122   10131       1
   10125   10134   10140   10149       1   10122   10113   10125   10137       1
   10122   10131   10140   10149       1   10119   10107   10116   10122       1
   10119   10107   10116   10128       1   10116   10122   10131   10143       1
   10113   10122   10116   10128       1   10113   10122   10131   10143       1
   10113   10125   10134   10146       1   10110   10092   10104   10113       1
   10104   10089   10107   10119       1   10104   10113   10125   10137       1
   10095   10071   10092   10104       1   10095   10071   10092   10110       1
   10089   10068   10083   10101       1   10089   10104   10092   10110       1
   10089   10107   10116   10128       1   10086   10065   10083   10101       1
   10080   10062   10074   10098       1   10077   10056   10074   10098       1
   10068   10053   10071   10095       1   10068   10083   10065   10086       1
   10068   10089   10107   10119       1   10065   10050   10062   10080       1
   10062   10050   10065   10086       1   10062   10074   10056   10077       1
   10059   10047   10056   10074       1   10059   10047   10056   10077       1
   10056   10074   10062   10080       1   10053   10044   10047   10059       1
   10053   10068   10083   10101       1   10053   10071   10092   10110       1
   10050   10044   10047   10059       1   10050   10062   10074   10098       1
   10050   10065   10083   10101       1   10047   10056   10074   10098       1
   10044   10047   10056   10077       1   10044   10050   10062   10080       1
   10044   10050   10065   10086       1   10044   10053   10071   10095       1
   10254   10242   10248   10257       1   10251   10239   10248   10257       1
   10245   10233   10242   10248       1   10245   10233   10242   10254       1
   10242   10248   10239   10251       1   10239   10248   10242   10254       1
   10236   10224   10230   10239       1   10233   10242   10248   10257       1
   10230   10221   10233   10245       1   10230   10239   10248   10257       1
   10227   10215   10224   10230       1   10227   10215   10224   10236       1
   10224   10230   10239   10251       1   10221   10230   10224   10236       1
   10221   10230   10239   10251       1   10221   10233   10242   10254       1
   10218   10200   10212   10221       1   10212   10197   10215   10227       1
   10212   10221   10233   10245       1   10203   10179   10200   10212       1
   10203   10179   10200   10218       1   10197   10176   10191   10209       1
   10197   10212   10200   10218       1   10197   10215   10224   10236       1
   10194   10173   10191   10209       1   10188   10170   10182   10206       1
   10185   10164   10182   10206       1   10176   10161   10179   10203       1
   10176   10191   10173   10194       1   10176   10197   10215   10227       1
   10173   10158   10170   10188       1   10170   10158   10173   10194       1
   10170   10182   10164   10185       1   10167   10155   10164   10182       1
   10167   10155   10164   10185       1   10164   10182   10170   10188       1
   10161   10152   10155   10167       1   10161   10176   10191   10209       1
   10161   10179   10200   10218       1   10158   10152   10155   10167       1
   10158   10170   10182   10206       1   10158   10173   10191   10209       1
   10155   10164   10182   10206       1   10152   10155   10164   10185       1
   10152   10158   10170   10188       1   10152   10158   10173   10194       1
   10152   10161   10179   10203       1   10362   10350   10356   10365       1
   10359   10347   10356   10365       1   10353   10341   10350   10356       1
   10353   10341   10350   10362       1   10350   10356   10347   10359       1
   10347   10356   10350   10362       1   10344   10332   10338   10347       1
   10341   10350   10356   10365       1   10338   10329   10341   10353       1
   10338   10347   10356   10365       1   10335   10323   10332   10338       1
   10335   10323   10332   10344       1   10332   10338   10347   10359       1
   10329   10338   10332   10344       1   10329   10338   10347   10359       1
   10329   10341   10350   10362       1   10326   10308   10320   10329       1
   10320   10305   10323   10335       1   10320   10329   10341   10353       1
   10311   10287   10308   10320       1   10311   10287   10308   10326       1
   10305   10284   10299   10317       1   10305   10320   10308   10326       1
   10305   10323   10332   10344       1   10302   10281   10299   10317       1
   10296   10278   10290   10314       1   10293   10272   10290   10314       1
   10284   10269   10287   10311       1   10284   10299   10281   10302       1
   10284   10305   10323   10335       1   10281   10266   10278   10296       1
   10278   10266   10281   10302       1   10278   10290   10272   10293       1
   10275   10263   10272   10290       1   10275   10263   10272   10293       1
   10272   10290   10278   10296       1   10269   10260   10263   10275       1
   10269   10284   10299   10317       1   10269   10287   10308   10326       1
   10266   10260   10263   10275       1   10266   10278   10290   10314       1
   10266   10281   10299   10317       1   10263   10272   10290   10314       1
   10260   10263   10272   10293       1   10260   10266   10278   10296       1
   10260   10266   10281   10302       1   10260   10269   10287   10311       1
   10470   10458   10464   10473       1   10467   10455   10464   10473       1
   10461   10449   10458   10464       1   10461   10449   10458   10470       1
   10458   10464   10455   10467       1   10455   10464   10458   10470       1
   10452   10440   10446   10455       1   10449   10458   10464   10473       1
   10446   10437   10449   10461       1   10446   10455   10464   10473       1
   10443   10431   10440   10446       1   10443   10431   10440   10452       1
   10440   10446   10455   10467       1   10437   10446   10440   10452       1
   10437   10446   10455   10467       1   10437   10449   10458   10470       1
   10434   10416   10428   10437       1   10428   10413   10431   10443       1
   10428   10437   10449   10461       1   10419   10395   10416   10428       1
   10419   10395   10416   10434       1   10413   10392   10407   10425       1
   10413   10428   10416   10434       1   10413   10431   10440   10452       1
   10410   10389   10407   10425       1   10404   10386   10398   10422       1
   10401   10380   10398   10422       1   10392   10377   10395   10419       1
   10392   10407   10389   10410       1   10392   10413   10431   10443       1
   10389   10374   10386   10404       1   10386   10374   10389   10410       1
   10386   10398   10380   10401       1   10383   10371   10380   10398       1
   10383   10371   10380   10401       1   10380   10398   10386   10404       1
   10377   10368   10371   10383       1   10377   10392   10407   10425       1
   10377   10395   10416   10434       1   10374   10368   10371   10383       1
   10374   10386   10398   10422       1   10374   10389   10407   10425       1
   10371   10380   10398   10422       1   10368   10371   10380   10401       1
   10368   10374   10386   10404       1   10368   10374   10389   10410       1
   10368   10377   10395   10419       1   10578   10566   10572   10581       1
   10575   10563   10572   10581       1   10569   10557   10566   10572       1
   10569   10557   10566   10578       1   10566   10572   10563   10575       1
   10563   10572   10566   10578       1   10560   10548   10554   10563       1
   10557   10566   10572   10581       1   10554   10545   10557   10569       1
   10554   10563   10572   10581       1   10551   10539   10548   10554       1
   10551   10539   10548   10560       1   10548   10554   10563   10575       1
   10545   10554   10548   10560       1   10545   10554   10563   10575       1
   10545   10557   10566   10578       1   10542   10524   10536   10545       1
   10536   10521   10539   10551       1   10536   10545   10557   10569       1
   10527   10503   10524   10536       1   10527   10503   10524   10542       1
   10521   10500   10515   10533       1   10521   10536   10524   10542       1
   10521   10539   10548   10560       1   10518   10497   10515   10533       1
   10512   10494   10506   10530       1   10509   10488   10506   10530       1
   10500   10485   10503   10527       1   10500   10515   10497   10518       1
   10500   10521   10539   10551       1   10497   10482   10494   10512       1
   10494   10482   10497   10518       1   10494   10506   10488   10509       1
   10491   10479   10488   10506       1   10491   10479   10488   10509       1
   10488   10506   10494   10512       1   10485   10476   10479   10491       1
   10485   10500   10515   10533       1   10485   10503   10524   10542       1
   10482   10476   10479   10491       1   10482   10494   10506   10530       1
   10482   10497   10515   10533       1   10479   10488   10506   10530       1
   10476   10479   10488   10509       1   10476   10482   10494   10512       1
   10476   10482   10497   10518       1   10476   10485   10503   10527       1
   10686   10674   10680   10689       1   10683   10671   10680   10689       1
   10677   10665   10674   10680       1   10677   10665   10674   10686       1
   10674   10680   10671   10683       1   10671   10680   10674   10686       1
   10668   10656   10662   10671       1   10665   10674   10680   10689       1
   10662   10653   10665   10677       1   10662   10671   10680   10689       1
   10659   10647   10656   10662       1   10659   10647   10656   10668       1
   10656   10662   10671   10683       1   10653   10662   10656   10668       1
   10653   10662   10671   10683       1   10653   10665   10674   10686       1
   10650   10632   10644   10653       1   10644   10629   10647   10659       1
   10644   10653   10665   10677       1   10635   10611   10632   10644       1
   10635   10611   10632   10650       1   10629   10608   10623   10641       1
   10629   10644   10632   10650       1   10629   10647   10656   10668       1
   10626   10605   10623   10641       1   10620   10602   10614   10638       1
   10617   10596   10614   10638       1   10608   10593   10611   10635       1
   10608   10623   10605   10626       1   10608   10629   10647   10659       1
   10605   10590   10602   10620       1   10602   10590   10605   10626       1
   10602   10614   10596   10617       1   10599   10587   10596   10614       1
   10599   10587   10596   10617       1   10596   10614   10602   10620       1
   10593   10584   10587   10599       1   10593   10608   10623   10641       1
   10593   10611   10632   10650       1   10590   10584   10587   10599       1
   10590   10602   10614   10638       1   10590   10605   10623   10641       1
   10587   10596   10614   10638       1   10584   10587   10596   10617       1
   10584   10590   10602   10620       1   10584   10590   10605   10626       1
   10584   10593   10611   10635       1   10794   10782   10788   10797       1
   10791   10779   10788   10797       1   10785   10773   10782   10788       1
   10785   10773   10782   10794       1   10782   10788   10779   10791       1
   10779   10788   10782   10794       1   10776   10764   10770   10779       1
   10773   10782   10788   10797       1   10770   10761   10773   10785       1
   10770   10779   10788   10797       1   10767   10755   10764   10770       1
   10767   10755   10764   10776       1   10764   10770   10779   10791       1
   10761   10770   10764   10776       1   10761   10770   10779   10791       1
   10761   10773   10782   10794       1   10758   10740   10752   10761       1
   10752   10737   10755   10767       1   10752   10761   10773   10785       1
   10743   10719   10740   10752       1   10743   10719   10740   10758       1
   10737   10716   10731   10749       1   10737   10752   10740   10758       1
   10737   10755   10764   10776       1   10734   10713   10731   10749       1
   10728   10710   10722   10746       1   10725   10704   10722   10746       1
   10716   10701   10719   10743       1   10716   10731   10713   10734       1
   10716   10737   10755   10767       1   10713   10698   10710   10728       1
   10710   10698   10713   10734       1   10710   10722   10704   10725       1
   10707   10695   10704   10722       1   10707   10695   10704   10725       1
   10704   10722   10710   10728       1   10701   10692   10695   10707       1
   10701   10716   10731   10749       1   10701   10719   10740   10758       1
   10698   10692   10695   10707       1   10698   10710   10722   10746       1
   10698   10713   10731   10749       1   10695   10704   10722   10746       1
   10692   10695   10704   10725       1   10692   10698   10710   10728       1
   10692   10698   10713   10734       1   10692   10701   10719   10743       1
   10902   10890   10896   10905       1   10899   10887   10896   10905       1
   10893   10881   10890   10896       1   10893   10881   10890   10902       1
   10890   10896   10887   10899       1   10887   10896   10890   10902       1
   10884   10872   10878   10887       1   10881   10890   10896   10905       1
   10878   10869   10881   10893       1   10878   10887   10896   10905       1
   10875   10863   10872   10878       1   10875   10863   10872   10884       1
   10872   10878   10887   10899       1   10869   10878   10872   10884       1
   10869   10878   10887   10899       1   10869   10881   10890   10902       1
   10866   10848   10860   10869       1   10860   10845   10863   10875       1
   10860   10869   10881   10893       1   10851   10827   10848   10860       1
   10851   10827   10848   10866       1   10845   10824   10839   10857       1
   10845   10860   10848   10866       1   10845   10863   10872   10884       1
   10842   10821   10839   10857       1   10836   10818   10830   10854       1
   10833   10812   10830   10854       1   10824   10809   10827   10851       1
   10824   10839   10821   10842       1   10824   10845   10863   10875       1
   10821   10806   10818   10836       1   10818   10806   10821   10842       1
   10818   10830   10812   10833       1   10815   10803   10812   10830       1
   10815   10803   10812   10833       1   10812   10830   10818   10836       1
   10809   10800   10803   10815       1   10809   10824   10839   10857       1
   10809   10827   10848   10866       1   10806   10800   10803   10815       1
   10806   10818   10830   10854       1   10806   10821   10839   10857       1
   10803   10812   10830   10854       1   10800   10803   10812   10833       1
   10800   10806   10818   10836       1   10800   10806   10821   10842       1
   10800   10809   10827   10851       1   11010   10998   11004   11013       1
   11007   10995   11004   11013       1   11001   10989   10998   11004       1
   11001   10989   10998   11010       1   10998   11004   10995   11007       1
   10995   11004   10998   11010       1   10992   10980   10986   10995       1
   10989   10998   11004   11013       1   10986   10977   10989   11001       1
   10986   10995   11004   11013       1   10983   10971   10980   10986       1
   10983   10971   10980   10992       1   10980   10986   10995   11007       1
   10977   10986   10980   10992       1   10977   10986   10995   11007       1
   10977   10989   10998   11010       1   10974   10956   10968   10977       1
   10968   10953   10971   10983       1   10968   10977   10989   11001       1
   10959   10935   10956   10968       1   10959   10935   10956   10974       1
   10953   10932   10947   10965       1   10953   10968   10956   10974       1
   10953   10971   10980   10992       1   10950   10929   10947   10965       1
   10944   10926   10938   10962       1   10941   10920   10938   10962       1
   10932   10917   10935   10959       1   10932   10947   10929   10950       1
   10932   10953   10971   10983       1   10929   10914   10926   10944       1
   10926   10914   10929   10950       1   10926   10938   10920   10941       1
   10923   10911   10920   10938       1   10923   10911   10920   10941       1
   10920   10938   10926   10944       1   10917   10908   10911   10923       1
   10917   10932   10947   10965       1   10917   10935   10956   10974       1
   10914   10908   10911   10923       1   10914   10926   10938   10962       1
   10914   10929   10947   10965       1   10911   10920   10938   10962       1
   10908   10911   10920   10941       1   10908   10914   10926   10944       1
   10908   10914   10929   10950       1   10908   10917   10935   10959       1
   11118   11106   11112   11121       1   11115   11103   11112   11121       1
   11109   11097   11106   11112       1   11109   11097   11106   11118       1
   11106   11112   11103   11115       1   11103   11112   11106   11118       1
   11100   11088   11094   11103       1   11097   11106   11112   11121       1
   11094   11085   11097   11109       1   11094   11103   11112   11121       1
   11091   11079   11088   11094       1   11091   11079   11088   11100       1
   11088   11094   11103   11115       1   11085   11094   11088   11100       1
   11085   11094   11103   11115       1   11085   11097   11106   11118       1
   11082   11064   11076   11085       1   11076   11061   11079   11091       1
   11076   11085   11097   11109       1   11067   11043   11064   11076       1
   11067   11043   11064   11082       1   11061   11040   11055   11073       1
   11061   11076   11064   11082       1   11061   11079   11088   11100       1
   11058   11037   11055   11073       1   11052   11034   11046   11070       1
   11049   11028   11046   11070       1   11040   11025   11043   11067       1
   11040   11055   11037   11058       1   11040   11061   11079   11091       1
   11037   11022   11034   11052       1   11034   11022   11037   11058       1
   11034   11046   11028   11049       1   11031   11019   11028   11046       1
   11031   11019   11028   11049       1   11028   11046   11034   11052       1
   11025   11016   11019   11031       1   11025   11040   11055   11073       1
   11025   11043   11064   11082       1   11022   11016   11019   11031       1
   11022   11034   11046   11070       1   11022   11037   11055   11073       1
   11019   11028   11046   11070       1   11016   11019   11028   11049       1
   11016   11022   11034   11052       1   11016   11022   11037   11058       1
   11016   11025   11043   11067       1   11226   11214   11220   11229       1
   11223   11211   11220   11229       1   11217   11205   11214   11220       1
   11217   11205   11214   11226       1   11214   11220   11211   11223       1
   11211   11220   11214   11226       1   11208   11196   11202   11211       1
   11205   11214   11220   11229       1   11202   11193   11205   11217       1
   11202   11211   11220   11229       1   11199   11187   11196   11202       1
   11199   11187   11196   11208       1   11196   11202   11211   11223       1
   11193   11202   11196   11208       1   11193   11202   11211   11223       1
   11193   11205   11214   11226       1   11190   11172   11184   11193       1
   11184   11169   11187   11199       1   11184   11193   11205   11217       1
   11175   11151   11172   11184       1   11175   11151   11172   11190       1
   11169   11148   11163   11181       1   11169   11184   11172   11190       1
   11169   11187   11196   11208       1   11166   11145   11163   11181       1
   11160   11142   11154   11178       1   11157   11136   11154   11178       1
   11148   11133   11151   11175       1   11148   11163   11145   11166       1
   11148   11169   11187   11199       1   11145   11130   11142   11160       1
   11142   11130   11145   11166       1   11142   11154   11136   11157       1
   11139   11127   11136   11154       1   11139   11127   11136   11157       1
   11136   11154   11142   11160       1   11133   11124   11127   11139       1
   11133   11148   11163   11181       1   11133   11151   11172   11190       1
   11130   11124   11127   11139       1   11130   11142   11154   11178       1
   11130   11145   11163   11181       1   11127   11136   11154   11178       1
   11124   11127   11136   11157       1   11124   11130   11142   11160       1
   11124   11130   11145   11166       1   11124   11133   11151   11175       1
   11334   11322   11328   11337       1   11331   11319   11328   11337       1
   11325   11313   11322   11328       1   11325   11313   11322   11334       1
   11322   11328   11319   11331       1   11319   11328   11322   11334       1
   11316   11304   11310   11319       1   11313   11322   11328   11337       1
   11310   11301   11313   11325       1   11310   11319   11328   11337       1
   11307   11295   11304   11310       1   11307   11295   11304   11316       1
   11304   11310   11319   11331       1   11301   11310   11304   11316       1
   11301   11310   11319   11331       1   11301   11313   11322   11334       1
   11298   11280   11292   11301       1   11292   11277   11295   11307       1
   11292   11301   11313   11325       1   11283   11259   11280   11292       1
   11283   11259   11280   11298       1   11277   11256   11271   11289       1
   11277   11292   11280   11298       1   11277   11295   11304   11316       1
   11274   11253   11271   11289       1   11268   11250   11262   11286       1
   11265   11244   11262   11286       1   11256   11241   11259   11283       1
   11256   11271   11253   11274       1   11256   11277   11295   11307       1
   11253   11238   11250   11268       1   11250   11238   11253   11274       1
   11250   11262   11244   11265       1   11247   11235   11244   11262       1
   11247   11235   11244   11265       1   11244   11262   11250   11268       1
   11241   11232   11235   11247       1   11241   11256   11271   11289       1
   11241   11259   11280   11298       1   11238   11232   11235   11247       1
   11238   11250   11262   11286       1   11238   11253   11271   11289       1
   11235   11244   11262   11286       1   11232   11235   11244   11265       1
   11232   11238   11250   11268       1   11232   11238   11253   11274       1
   11232   11241   11259   11283       1   11442   11430   11436   11445       1
   11439   11427   11436   11445       1   11433   11421   11430   11436       1
   11433   11421   11430   11442       1   11430   11436   11427   11439       1
   11427   11436   11430   11442       1   11424   11412   11418   11427       1
   11421   11430   11436   11445       1   11418   11409   11421   11433       1
   11418   11427   11436   11445       1   11415   11403   11412   11418       1
   11415   11403   11412   11424       1   11412   11418   11427   11439       1
   11409   11418   11412   11424       1   11409   11418   11427   11439       1
   11409   11421   11430   11442       1   11406   11388   11400   11409       1
   11400   11385   11403   11415       1   11400   11409   11421   11433       1
   11391   11367   11388   11400       1   11391   11367   11388   11406       1
   11385   11364   11379   11397       1   11385   11400   11388   11406       1
   11385   11403   11412   11424       1   11382   11361   11379   11397       1
   11376   11358   11370   11394       1   11373   11352   11370   11394       1
   11364   11349   11367   11391       1   11364   11379   11361   11382       1
   11364   11385   11403   11415       1   11361   11346   11358   11376       1
   11358   11346   11361   11382       1   11358   11370   11352   11373       1
   11355   11343   11352   11370       1   11355   11343   11352   11373       1
   11352   11370   11358   11376       1   11349   11340   11343   11355       1
   11349   11364   11379   11397       1   11349   11367   11388   11406       1
   11346   11340   11343   11355       1   11346   11358   11370   11394       1
   11346   11361   11379   11397       1   11343   11352   11370   11394       1
   11340   11343   11352   11373       1   11340   11346   11358   11376       1
   11340   11346   11361   11382       1   11340   11349   11367   11391       1
   11550   11538   11544   11553       1   11547   11535   11544   11553       1
   11541   11529   11538   11544       1   11541   11529   11538   11550       1
   11538   11544   11535   11547       1   11535   11544   11538   11550       1
   11532   11520   11526   11535       1   11529   11538   11544   11553       1
   11526   11517   11529   11541       1   11526   11535   11544   11553       1
   11523   11511   11520   11526       1   11523   11511   11520   11532       1
   11520   11526   11535   11547       1   11517   11526   11520   11532       1
   11517   11526   11535   11547       1   11517   11529   11538   11550       1
   11514   11496   11508   11517       1   11508   11493   11511   11523       1
   11508   11517   11529   11541       1   11499   11475   11496   11508       1
   11499   11475   11496   11514       1   11493   11472   11487   11505       1
   11493   11508   11496   11514       1   11493   11511   11520   11532       1
   11490   11469   11487   11505       1   11484   11466   11478   11502       1
   11481   11460   11478   11502       1   11472   11457   11475   11499       1
   11472   11487   11469   11490       1   11472   11493   11511   11523       1
   11469   11454   11466   11484       1   11466   11454   11469   11490       1
   11466   11478   11460   11481       1   11463   11451   11460   11478       1
   11463   11451   11460   11481       1   11460   11478   11466   11484       1
   11457   11448   11451   11463       1   11457   11472   11487   11505       1
   11457   11475   11496   11514       1   11454   11448   11451   11463       1
   11454   11466   11478   11502       1   11454   11469   11487   11505       1
   11451   11460   11478   11502       1   11448   11451   11460   11481       1
   11448   11454   11466   11484       1   11448   11454   11469   11490       1
   11448   11457   11475   11499       1   11658   11646   11652   11661       1
   11655   11643   11652   11661       1   11649   11637   11646   11652       1
   11649   11637   11646   11658       1   11646   11652   11643   11655       1
   11643   11652   11646   11658       1   11640   11628   11634   11643       1
   11637   11646   11652   11661       1   11634   11625   11637   11649       1
   11634   11643   11652   11661       1   11631   11619   11628   11634       1
   11631   11619   11628   11640       1   11628   11634   11643   11655       1
   11625   11634   11628   11640       1   11625   11634   11643   11655       1
   11625   11637   11646   11658       1   11622   11604   11616   11625       1
   11616   11601   11619   11631       1   11616   11625   11637   11649       1
   11607   11583   11604   11616       1   11607   11583   11604   11622       1
   11601   11580   11595   11613       1   11601   11616   11604   11622       1
   11601   11619   11628   11640       1   11598   11577   11595   11613       1
   11592   11574   11586   11610       1   11589   11568   11586   11610       1
   11580   11565   11583   11607       1   11580   11595   11577   11598       1
   11580   11601   11619   11631       1   11577   11562   11574   11592       1
   11574   11562   11577   11598       1   11574   11586   11568   11589       1
   11571   11559   11568   11586       1   11571   11559   11568   11589       1
   11568   11586   11574   11592       1   11565   11556   11559   11571       1
   11565   11580   11595   11613       1   11565   11583   11604   11622       1
   11562   11556   11559   11571       1   11562   11574   11586   11610       1
   11562   11577   11595   11613       1   11559   11568   11586   11610       1
   11556   11559   11568   11589       1   11556   11562   11574   11592       1
   11556   11562   11577   11598       1   11556   11565   11583   11607       1
   11766   11754   11760   11769       1   11763   11751   11760   11769       1
   11757   11745   11754   11760       1   11757   11745   11754   11766       1
   11754   11760   11751   11763       1   11751   11760   11754   11766       1
   11748   11736   11742   11751       1   11745   11754   11760   11769       1
   11742   11733   11745   11757       1   11742   11751   11760   11769       1
   11739   11727   11736   11742       1   11739   11727   11736   11748       1
   11736   11742   11751   11763       1   11733   11742   11736   11748       1
   11733   11742   11751   11763       1   11733   11745   11754   11766       1
   11730   11712   11724   11733       1   11724   11709   11727   11739       1
   11724   11733   11745   11757       1   11715   11691   11712   11724       1
   11715   11691   11712   11730       1   11709   11688   11703   11721       1
   11709   11724   11712   11730       1   11709   11727   11736   11748       1
   11706   11685   11703   11721       1   11700   11682   11694   11718       1
   11697   11676   11694   11718       1   11688   11673   11691   11715       1
   11688   11703   11685   11706       1   11688   11709   11727   11739       1
   11685   11670   11682   11700       1   11682   11670   11685   11706       1
   11682   11694   11676   11697       1   11679   11667   11676   11694       1
   11679   11667   11676   11697       1   11676   11694   11682   11700       1
   11673   11664   11667   11679       1   11673   11688   11703   11721       1
   11673   11691   11712   11730       1   11670   11664   11667   11679       1
   11670   11682   11694   11718       1   11670   11685   11703   11721       1
   11667   11676   11694   11718       1   11664   11667   11676   11697       1
   11664   11670   11682   11700       1   11664   11670   11685   11706       1
   11664   11673   11691   11715       1   11874   11862   11868   11877       1
   11871   11859   11868   11877       1   11865   11853   11862   11868       1
   11865   11853   11862   11874       1   11862   11868   11859   11871       1
   11859   11868   11862   11874       1   11856   11844   11850   11859       1
   11853   11862   11868   11877       1   11850   11841   11853   11865       1
   11850   11859   11868   11877       1   11847   11835   11844   11850       1
   11847   11835   11844   11856       1   11844   11850   11859   11871       1
   11841   11850   11844   11856       1   11841   11850   11859   11871       1
   11841   11853   11862   11874       1   11838   11820   11832   11841       1
   11832   11817   11835   11847       1   11832   11841   11853   11865       1
   11823   11799   11820   11832       1   11823   11799   11820   11838       1
   11817   11796   11811   11829       1   11817   11832   11820   11838       1
   11817   11835   11844   11856       1   11814   11793   11811   11829       1
   11808   11790   11802   11826       1   11805   11784   11802   11826       1
   11796   11781   11799   11823       1   11796   11811   11793   11814       1
   11796   11817   11835   11847       1   11793   11778   11790   11808       1
   11790   11778   11793   11814       1   11790   11802   11784   11805       1
   11787   11775   11784   11802       1   11787   11775   11784   11805       1
   11784   11802   11790   11808       1   11781   11772   11775   11787       1
   11781   11796   11811   11829       1   11781   11799   11820   11838       1
   11778   11772   11775   11787       1   11778   11790   11802   11826       1
   11778   11793   11811   11829       1   11775   11784   11802   11826       1
   11772   11775   11784   11805       1   11772   11778   11790   11808       1
   11772   11778   11793   11814       1   11772   11781   11799   11823       1
   11982   11970   11976   11985       1   11979   11967   11976   11985       1
   11973   11961   11970   11976       1   11973   11961   11970   11982       1
   11970   11976   11967   11979       1   11967   11976   11970   11982       1
   11964   11952   11958   11967       1   11961   11970   11976   11985       1
   11958   11949   11961   11973       1   11958   11967   11976   11985       1
   11955   11943   11952   11958       1   11955   11943   11952   11964       1
   11952   11958   11967   11979       1   11949   11958   11952   11964       1
   11949   11958   11967   11979       1   11949   11961   11970   11982       1
   11946   11928   11940   11949       1   11940   11925   11943   11955       1
   11940   11949   11961   11973       1   11931   11907   11928   11940       1
   11931   11907   11928   11946       1   11925   11904   11919   11937       1
   11925   11940   11928   11946       1   11925   11943   11952   11964       1
   11922   11901   11919   11937       1   11916   11898   11910   11934       1
   11913   11892   11910   11934       1   11904   11889   11907   11931       1
   11904   11919   11901   11922       1   11904   11925   11943   11955       1
   11901   11886   11898   11916       1   11898   11886   11901   11922       1
   11898   11910   11892   11913       1   11895   11883   11892   11910       1
   11895   11883   11892   11913       1   11892   11910   11898   11916       1
   11889   11880   11883   11895       1   11889   11904   11919   11937       1
   11889   11907   11928   11946       1   11886   11880   11883   11895       1
   11886   11898   11910   11934       1   11886   11901   11919   11937       1
   11883   11892   11910   11934       1   11880   11883   11892   11913       1
   11880   11886   11898   11916       1   11880   11886   11901   11922       1
   11880   11889   11907   11931       1   12090   12078   12084   12093       1
   12087   12075   12084   12093       1   12081   12069   12078   12084       1
   12081   12069   12078   12090       1   12078   12084   12075   12087       1
   12075   12084   12078   12090       1   12072   12060   12066   12075       1
   12069   12078   12084   12093       1   12066   12057   12069   12081       1
   12066   12075   12084   12093       1   12063   12051   12060   12066       1
   12063   12051   12060   12072       1   12060   12066   12075   12087       1
   12057   12066   12060   12072       1   12057   12066   12075   12087       1
   12057   12069   12078   12090       1   12054   12036   12048   12057       1
   12048   12033   12051   12063       1   12048   12057   12069   12081       1
   12039   12015   12036   12048       1   12039   12015   12036   12054       1
   12033   12012   12027   12045       1   12033   12048   12036   12054       1
   12033   12051   12060   12072       1   12030   12009   12027   12045       1
   12024   12006   12018   12042       1   12021   12000   12018   12042       1
   12012   11997   12015   12039       1   12012   12027   12009   12030       1
   12012   12033   12051   12063       1   12009   11994   12006   12024       1
   12006   11994   12009   12030       1   12006   12018   12000   12021       1
   12003   11991   12000   12018       1   12003   11991   12000   12021       1
   12000   12018   12006   12024       1   11997   11988   11991   12003       1
   11997   12012   12027   12045       1   11997   12015   12036   12054       1
   11994   11988   11991   12003       1   11994   12006   12018   12042       1
   11994   12009   12027   12045       1   11991   12000   12018   12042       1
   11988   11991   12000   12021       1   11988   11994   12006   12024       1
   11988   11994   12009   12030       1   11988   11997   12015   12039       1
   12198   12186   12192   12201       1   12195   12183   12192   12201       1
   12189   12177   12186   12192       1   12189   12177   12186   12198       1
   12186   12192   12183   12195       1   12183   12192   12186   12198       1
   12180   12168   12174   12183       1   12177   12186   12192   12201       1
   12174   12165   12177   12189       1   12174   12183   12192   12201       1
   12171   12159   12168   12174       1   12171   12159   12168   12180       1
   12168   12174   12183   12195       1   12165   12174   12168   12180       1
   12165   12174   12183   12195       1   12165   12177   12186   12198       1
   12162   12144   12156   12165       1   12156   12141   12159   12171       1
   12156   12165   12177   12189       1   12147   12123   12144   12156       1
   12147   12123   12144   12162       1   12141   12120   12135   12153       1
   12141   12156   12144   12162       1   12141   12159   12168   12180       1
   12138   12117   12135   12153       1   12132   12114   12126   12150       1
   12129   12108   12126   12150       1   12120   12105   12123   12147       1
   12120   12135   12117   12138       1   12120   12141   12159   12171       1
   12117   12102   12114   12132       1   12114   12102   12117   12138       1
   12114   12126   12108   12129       1   12111   12099   12108   12126       1
   12111   12099   12108   12129       1   12108   12126   12114   12132       1
   12105   12096   12099   12111       1   12105   12120   12135   12153       1
   12105   12123   12144   12162       1   12102   12096   12099   12111       1
   12102   12114   12126   12150       1   12102   12117   12135   12153       1
   12099   12108   12126   12150       1   12096   12099   12108   12129       1
   12096   12102   12114   12132       1   12096   12102   12117   12138       1
   12096   12105   12123   12147       1   12306   12294   12300   12309       1
   12303   12291   12300   12309       1   12297   12285   12294   12300       1
   12297   12285   12294   12306       1   12294   12300   12291   12303       1
   12291   12300   12294   12306       1   12288   12276   12282   12291       1
   12285   12294   12300   12309       1   12282   12273   12285   12297       1
   12282   12291   12300   12309       1   12279   12267   12276   12282       1
   12279   12267   12276   12288       1   12276   12282   12291   12303       1
   12273   12282   12276   12288       1   12273   12282   12291   12303       1
   12273   12285   12294   12306       1   12270   12252   12264   12273       1
   12264   12249   12267   12279       1   12264   12273   12285   12297       1
   12255   12231   12252   12264       1   12255   12231   12252   12270       1
   12249   12228   12243   12261       1   12249   12264   12252   12270       1
   12249   12267   12276   12288       1   12246   12225   12243   12261       1
   12240   12222   12234   12258       1   12237   12216   12234   12258       1
   12228   12213   12231   12255       1   12228   12243   12225   12246       1
   12228   12249   12267   12279       1   12225   12210   12222   12240       1
   12222   12210   12225   12246       1   12222   12234   12216   12237       1
   12219   12207   12216   12234       1   12219   12207   12216   12237       1
   12216   12234   12222   12240       1   12213   12204   12207   12219       1
   12213   12228   12243   12261       1   12213   12231   12252   12270       1
   12210   12204   12207   12219       1   12210   12222   12234   12258       1
   12210   12225   12243   12261       1   12207   12216   12234   12258       1
   12204   12207   12216   12237       1   12204   12210   12222   12240       1
   12204   12210   12225   12246       1   12204   12213   12231   12255       1
   12414   12402   12408   12417       1   12411   12399   12408   12417       1
   12405   12393   12402   12408       1   12405   12393   12402   12414       1
   12402   12408   12399   12411       1   12399   12408   12402   12414       1
   12396   12384   12390   12399       1   12393   12402   12408   12417       1
   12390   12381   12393   12405       1   12390   12399   12408   12417       1
   12387   12375   12384   12390       1   12387   12375   12384   12396       1
   12384   12390   12399   12411       1   12381   12390   12384   12396       1
   12381   12390   12399   12411       1   12381   12393   12402   12414       1
   12378   12360   12372   12381       1   12372   12357   12375   12387       1
   12372   12381   12393   12405       1   12363   12339   12360   12372       1
   12363   12339   12360   12378       1   12357   12336   12351   12369       1
   12357   12372   12360   12378       1   12357   12375   12384   12396       1
   12354   12333   12351   12369       1   12348   12330   12342   12366       1
   12345   12324   12342   12366       1   12336   12321   12339   12363       1
   12336   12351   12333   12354       1   12336   12357   12375   12387       1
   12333   12318   12330   12348       1   12330   12318   12333   12354       1
   12330   12342   12324   12345       1   12327   12315   12324   12342       1
   12327   12315   12324   12345       1   12324   12342   12330   12348       1
   12321   12312   12315   12327       1   12321   12336   12351   12369       1
   12321   12339   12360   12378       1   12318   12312   12315   12327       1
   12318   12330   12342   12366       1   12318   12333   12351   12369       1
   12315   12324   12342   12366       1   12312   12315   12324   12345       1
   12312   12318   12330   12348       1   12312   12318   12333   12354       1
   12312   12321   12339   12363       1   12522   12510   12516   12525       1
   12519   12507   12516   12525       1   12513   12501   12510   12516       1
   12513   12501   12510   12522       1   12510   12516   12507   12519       1
   12507   12516   12510   12522       1   12504   12492   12498   12507       1
   12501   12510   12516   12525       1   12498   12489   12501   12513       1
   12498   12507   12516   12525       1   12495   12483   12492   12498       1
   12495   12483   12492   12504       1   12492   12498   12507   12519       1
   12489   12498   12492   12504       1   12489   12498   12507   12519       1
   12489   12501   12510   12522       1   12486   12468   12480   12489       1
   12480   12465   12483   12495       1   12480   12489   12501   12513       1
   12471   12447   12468   12480       1   12471   12447   12468   12486       1
   12465   12444   12459   12477       1   12465   12480   12468   12486       1
   12465   12483   12492   12504       1   12462   12441   12459   12477       1
   12456   12438   12450   12474       1   12453   12432   12450   12474       1
   12444   12429   12447   12471       1   12444   12459   12441   12462       1
   12444   12465   12483   12495       1   12441   12426   12438   12456       1
   12438   12426   12441   12462       1   12438   12450   12432   12453       1
   12435   12423   12432   12450       1   12435   12423   12432   12453       1
   12432   12450   12438   12456       1   12429   12420   12423   12435       1
   12429   12444   12459   12477       1   12429   12447   12468   12486       1
   12426   12420   12423   12435       1   12426   12438   12450   12474       1
   12426   12441   12459   12477       1   12423   12432   12450   12474       1
   12420   12423   12432   12453       1   12420   12426   12438   12456       1
   12420   12426   12441   12462       1   12420   12429   12447   12471       1
   12630   12618   12624   12633       1   12627   12615   12624   12633       1
   12621   12609   12618   12624       1   12621   12609   12618   12630       1
   12618   12624   12615   12627       1   12615   12624   12618   12630       1
   12612   12600   12606   12615       1   12609   12618   12624   12633       1
   12606   12597   12609   12621       1   12606   12615   12624   12633       1
   12603   12591   12600   12606       1   12603   12591   12600   12612       1
   12600   12606   12615   12627       1   12597   12606   12600   12612       1
   12597   12606   12615   12627       1   12597   12609   12618   12630       1
   12594   12576   12588   12597       1   12588   12573   12591   12603       1
   12588   12597   12609   12621       1   12579   12555   12576   12588       1
   12579   12555   12576   12594       1   12573   12552   12567   12585       1
   12573   12588   12576   12594       1   12573   12591   12600   12612       1
   12570   12549   12567   12585       1   12564   12546   12558   12582       1
   12561   12540   12558   12582       1   12552   12537   12555   12579       1
   12552   12567   12549   12570       1   12552   12573   12591   12603       1
   12549   12534   12546   12564       1   12546   12534   12549   12570       1
   12546   12558   12540   12561       1   12543   12531   12540   12558       1
   12543   12531   12540   12561       1   12540   12558   12546   12564       1
   12537   12528   12531   12543       1   12537   12552   12567   12585       1
   12537   12555   12576   12594       1   12534   12528   12531   12543       1
   12534   12546   12558   12582       1   12534   12549   12567   12585       1
   12531   12540   12558   12582       1   12528   12531   12540   12561       1
   12528   12534   12546   12564       1   12528   12534   12549   12570       1
   12528   12537   12555   12579       1   12738   12726   12732   12741       1
   12735   12723   12732   12741       1   12729   12717   12726   12732       1
   12729   12717   12726   12738       1   12726   12732   12723   12735       1
   12723   12732   12726   12738       1   12720   12708   12714   12723       1
   12717   12726   12732   12741       1   12714   12705   12717   12729       1
   12714   12723   12732   12741       1   12711   12699   12708   12714       1
   12711   12699   12708   12720       1   12708   12714   12723   12735       1
   12705   12714   12708   12720       1   12705   12714   12723   12735       1
   12705   12717   12726   12738       1   12702   12684   12696   12705       1
   12696   12681   12699   12711       1   12696   12705   12717   12729       1
   12687   12663   12684   12696       1   12687   12663   12684   12702       1
   12681   12660   12675   12693       1   12681   12696   12684   12702       1
   12681   12699   12708   12720       1   12678   12657   12675   12693       1
   12672   12654   12666   12690       1   12669   12648   12666   12690       1
   12660   12645   12663   12687       1   12660   12675   12657   12678       1
   12660   12681   12699   12711       1   12657   12642   12654   12672       1
   12654   12642   12657   12678       1   12654   12666   12648   12669       1
   12651   12639   12648   12666       1   12651   12639   12648   12669       1
   12648   12666   12654   12672       1   12645   12636   12639   12651       1
   12645   12660   12675   12693       1   12645   12663   12684   12702       1
   12642   12636   12639   12651       1   12642   12654   12666   12690       1
   12642   12657   12675   12693       1   12639   12648   12666   12690       1
   12636   12639   12648   12669       1   12636   12642   12654   12672       1
   12636   12642   12657   12678       1   12636   12645   12663   12687       1
   12846   12834   12840   12849       1   12843   12831   12840   12849       1
   12837   12825   12834   12840       1   12837   12825   12834   12846       1
   12834   12840   12831   12843       1   12831   12840   12834   12846       1
   12828   12816   12822   12831       1   12825   12834   12840   12849       1
   12822   12813   12825   12837       1   12822   12831   12840   12849       1
   12819   12807   12816   12822       1   12819   12807   12816   12828       1
   12816   12822   12831   12843       1   12813   12822   12816   12828       1
   12813   12822   12831   12843       1   12813   12825   12834   12846       1
   12810   12792   12804   12813       1   12804   12789   12807   12819       1
   12804   12813   12825   12837       1   12795   12771   12792   12804       1
   12795   12771   12792   12810       1   12789   12768   12783   12801       1
   12789   12804   12792   12810       1   12789   12807   12816   12828       1
   12786   12765   12783   12801       1   12780   12762   12774   12798       1
   12777   12756   12774   12798       1   12768   12753   12771   12795       1
   12768   12783   12765   12786       1   12768   12789   12807   12819       1
   12765   12750   12762   12780       1   12762   12750   12765   12786       1
   12762   12774   12756   12777       1   12759   12747   12756   12774       1
   12759   12747   12756   12777       1   12756   12774   12762   12780       1
   12753   12744   12747   12759       1   12753   12768   12783   12801       1
   12753   12771   12792   12810       1   12750   12744   12747   12759       1
   12750   12762   12774   12798       1   12750   12765   12783   12801       1
   12747   12756   12774   12798       1   12744   12747   12756   12777       1
   12744   12750   12762   12780       1   12744   12750   12765   12786       1
   12744   12753   12771   12795       1   12954   12942   12948   12957       1
   12951   12939   12948   12957       1   12945   12933   12942   12948       1
   12945   12933   12942   12954       1   12942   12948   12939   12951       1
   12939   12948   12942   12954       1   12936   12924   12930   12939       1
   12933   12942   12948   12957       1   12930   12921   12933   12945       1
   12930   12939   12948   12957       1   12927   12915   12924   12930       1
   12927   12915   12924   12936       1   12924   12930   12939   12951       1
   12921   12930   12924   12936       1   12921   12930   12939   12951       1
   12921   12933   12942   12954       1   12918   12900   12912   12921       1
   12912   12897   12915   12927       1   12912   12921   12933   12945       1
   12903   12879   12900   12912       1   12903   12879   12900   12918       1
   12897   12876   12891   12909       1   12897   12912   12900   12918       1
   12897   12915   12924   12936       1   12894   12873   12891   12909       1
   12888   12870   12882   12906       1   12885   12864   12882   12906       1
   12876   12861   12879   12903       1   12876   12891   12873   12894       1
   12876   12897   12915   12927       1   12873   12858   12870   12888       1
   12870   12858   12873   12894       1   12870   12882   12864   12885       1
   12867   12855   12864   12882       1   12867   12855   12864   12885       1
   12864   12882   12870   12888       1   12861   12852   12855   12867       1
   12861   12876   12891   12909       1   12861   12879   12900   12918       1
   12858   12852   12855   12867       1   12858   12870   12882   12906       1
   12858   12873   12891   12909       1   12855   12864   12882   12906       1
   12852   12855   12864   12885       1   12852   12858   12870   12888       1
   12852   12858   12873   12894       1   12852   12861   12879   12903       1
   13062   13050   13056   13065       1   13059   13047   13056   13065       1
   13053   13041   13050   13056       1   13053   13041   13050   13062       1
   13050   13056   13047   13059       1   13047   13056   13050   13062       1
   13044   13032   13038   13047       1   13041   13050   13056   13065       1
   13038   13029   13041   13053       1   13038   13047   13056   13065       1
   13035   13023   13032   13038       1   13035   13023   13032   13044       1
   13032   13038   13047   13059       1   13029   13038   13032   13044       1
   13029   13038   13047   13059       1   13029   13041   13050   13062       1
   13026   13008   13020   13029       1   13020   13005   13023   13035       1
   13020   13029   13041   13053       1   13011   12987   13008   13020       1
   13011   12987   13008   13026       1   13005   12984   12999   13017       1
   13005   13020   13008   13026       1   13005   13023   13032   13044       1
   13002   12981   12999   13017       1   12996   12978   12990   13014       1
   12993   12972   12990   13014       1   12984   12969   12987   13011       1
   12984   12999   12981   13002       1   12984   13005   13023   13035       1
   12981   12966   12978   12996       1   12978   12966   12981   13002       1
   12978   12990   12972   12993       1   12975   12963   12972   12990       1
   12975   12963   12972   12993       1   12972   12990   12978   12996       1
   12969   12960   12963   12975       1   12969   12984   12999   13017       1
   12969   12987   13008   13026       1   12966   12960   12963   12975       1
   12966   12978   12990   13014       1   12966   12981   12999   13017       1
   12963   12972   12990   13014       1   12960   12963   12972   12993       1
   12960   12966   12978   12996       1   12960   12966   12981   13002       1
   12960   12969   12987   13011       1   13170   13158   13164   13173       1
   13167   13155   13164   13173       1   13161   13149   13158   13164       1
   13161   13149   13158   13170       1   13158   13164   13155   13167       1
   13155   13164   13158   13170       1   13152   13140   13146   13155       1
   13149   13158   13164   13173       1   13146   13137   13149   13161       1
   13146   13155   13164   13173       1   13143   13131   13140   13146       1
   13143   13131   13140   13152       1   13140   13146   13155   13167       1
   13137   13146   13140   13152       1   13137   13146   13155   13167       1
   13137   13149   13158   13170       1   13134   13116   13128   13137       1
   13128   13113   13131   13143       1   13128   13137   13149   13161       1
   13119   13095   13116   13128       1   13119   13095   13116   13134       1
   13113   13092   13107   13125       1   13113   13128   13116   13134       1
   13113   13131   13140   13152       1   13110   13089   13107   13125       1
   13104   13086   13098   13122       1   13101   13080   13098   13122       1
   13092   13077   13095   13119       1   13092   13107   13089   13110       1
   13092   13113   13131   13143       1   13089   13074   13086   13104       1
   13086   13074   13089   13110       1   13086   13098   13080   13101       1
   13083   13071   13080   13098       1   13083   13071   13080   13101       1
   13080   13098   13086   13104       1   13077   13068   13071   13083       1
   13077   13092   13107   13125       1   13077   13095   13116   13134       1
   13074   13068   13071   13083       1   13074   13086   13098   13122       1
   13074   13089   13107   13125       1   13071   13080   13098   13122       1
   13068   13071   13080   13101       1   13068   13074   13086   13104       1
   13068   13074   13089   13110       1   13068   13077   13095   13119       1
   13278   13266   13272   13281       1   13275   13263   13272   13281       1
   13269   13257   13266   13272       1   13269   13257   13266   13278       1
   13266   13272   13263   13275       1   13263   13272   13266   13278       1
   13260   13248   13254   13263       1   13257   13266   13272   13281       1
   13254   13245   13257   13269       1   13254   13263   13272   13281       1
   13251   13239   13248   13254       1   13251   13239   13248   13260       1
   13248   13254   13263   13275       1   13245   13254   13248   13260       1
   13245   13254   13263   13275       1   13245   13257   13266   13278       1
   13242   13224   13236   13245       1   13236   13221   13239   13251       1
   13236   13245   13257   13269       1   13227   13203   13224   13236       1
   13227   13203   13224   13242       1   13221   13200   13215   13233       1
   13221   13236   13224   13242       1   13221   13239   13248   13260       1
   13218   13197   13215   13233       1   13212   13194   13206   13230       1
   13209   13188   13206   13230       1   13200   13185   13203   13227       1
   13200   13215   13197   13218       1   13200   13221   13239   13251       1
   13197   13182   13194   13212       1   13194   13182   13197   13218       1
   13194   13206   13188   13209       1   13191   13179   13188   13206       1
   13191   13179   13188   13209       1   13188   13206   13194   13212       1
   13185   13176   13179   13191       1   13185   13200   13215   13233       1
   13185   13203   13224   13242       1   13182   13176   13179   13191       1
   13182   13194   13206   13230       1   13182   13197   13215   13233       1
   13179   13188   13206   13230       1   13176   13179   13188   13209       1
   13176   13182   13194   13212       1   13176   13182   13197   13218       1
   13176   13185   13203   13227       1   13386   13374   13380   13389       1
   13383   13371   13380   13389       1   13377   13365   13374   13380       1
   13377   13365   13374   13386       1   13374   13380   13371   13383       1
   13371   13380   13374   13386       1   13368   13356   13362   13371       1
   13365   13374   13380   13389       1   13362   13353   13365   13377       1
   13362   13371   13380   13389       1   13359   13347   13356   13362       1
   13359   13347   13356   13368       1   13356   13362   13371   13383       1
   13353   13362   13356   13368       1   13353   13362   13371   13383       1
   13353   13365   13374   13386       1   13350   13332   13344   13353       1
   13344   13329   13347   13359       1   13344   13353   13365   13377       1
   13335   13311   13332   13344       1   13335   13311   13332   13350       1
   13329   13308   13323   13341       1   13329   13344   13332   13350       1
   13329   13347   13356   13368       1   13326   13305   13323   13341       1
   13320   13302   13314   13338       1   13317   13296   13314   13338       1
   13308   13293   13311   13335       1   13308   13323   13305   13326       1
   13308   13329   13347   13359       1   13305   13290   13302   13320       1
   13302   13290   13305   13326       1   13302   13314   13296   13317       1
   13299   13287   13296   13314       1   13299   13287   13296   13317       1
   13296   13314   13302   13320       1   13293   13284   13287   13299       1
   13293   13308   13323   13341       1   13293   13311   13332   13350       1
   13290   13284   13287   13299       1   13290   13302   13314   13338       1
   13290   13305   13323   13341       1   13287   13296   13314   13338       1
   13284   13287   13296   13317       1   13284   13290   13302   13320       1
   13284   13290   13305   13326       1   13284   13293   13311   13335       1
   13494   13482   13488   13497       1   13491   13479   13488   13497       1
   13485   13473   13482   13488       1   13485   13473   13482   13494       1
   13482   13488   13479   13491       1   13479   13488   13482   13494       1
   13476   13464   13470   13479       1   13473   13482   13488   13497       1
   13470   13461   13473   13485       1   13470   13479   13488   13497       1
   13467   13455   13464   13470       1   13467   13455   13464   13476       1
   13464   13470   13479   13491       1   13461   13470   13464   13476       1
   13461   13470   13479   13491       1   13461   13473   13482   13494       1
   13458   13440   13452   13461       1   13452   13437   13455   13467       1
   13452   13461   13473   13485       1   13443   13419   13440   13452       1
   13443   13419   13440   13458       1   13437   13416   13431   13449       1
   13437   13452   13440   13458       1   13437   13455   13464   13476       1
   13434   13413   13431   13449       1   13428   13410   13422   13446       1
   13425   13404   13422   13446       1   13416   13401   13419   13443       1
   13416   13431   13413   13434       1   13416   13437   13455   13467       1
   13413   13398   13410   13428       1   13410   13398   13413   13434       1
   13410   13422   13404   13425       1   13407   13395   13404   13422       1
   13407   13395   13404   13425       1   13404   13422   13410   13428       1
   13401   13392   13395   13407       1   13401   13416   13431   13449       1
   13401   13419   13440   13458       1   13398   13392   13395   13407       1
   13398   13410   13422   13446       1   13398   13413   13431   13449       1
   13395   13404   13422   13446       1   13392   13395   13404   13425       1
   13392   13398   13410   13428       1   13392   13398   13413   13434       1
   13392   13401   13419   13443       1   13602   13590   13596   13605       1
   13599   13587   13596   13605       1   13593   13581   13590   13596       1
   13593   13581   13590   13602       1   13590   13596   13587   13599       1
   13587   13596   13590   13602       1   13584   13572   13578   13587       1
   13581   13590   13596   13605       1   13578   13569   13581   13593       1
   13578   13587   13596   13605       1   13575   13563   13572   13578       1
   13575   13563   13572   13584       1   13572   13578   13587   13599       1
   13569   13578   13572   13584       1   13569   13578   13587   13599       1
   13569   13581   13590   13602       1   13566   13548   13560   13569       1
   13560   13545   13563   13575       1   13560   13569   13581   13593       1
   13551   13527   13548   13560       1   13551   13527   13548   13566       1
   13545   13524   13539   13557       1   13545   13560   13548   13566       1
   13545   13563   13572   13584       1   13542   13521   13539   13557       1
   13536   13518   13530   13554       1   13533   13512   13530   13554       1
   13524   13509   13527   13551       1   13524   13539   13521   13542       1
   13524   13545   13563   13575       1   13521   13506   13518   13536       1
   13518   13506   13521   13542       1   13518   13530   13512   13533       1
   13515   13503   13512   13530       1   13515   13503   13512   13533       1
   13512   13530   13518   13536       1   13509   13500   13503   13515       1
   13509   13524   13539   13557       1   13509   13527   13548   13566       1
   13506   13500   13503   13515       1   13506   13518   13530   13554       1
   13506   13521   13539   13557       1   13503   13512   13530   13554       1
   13500   13503   13512   13533       1   13500   13506   13518   13536       1
   13500   13506   13521   13542       1   13500   13509   13527   13551       1
   13710   13698   13704   13713       1   13707   13695   13704   13713       1
   13701   13689   13698   13704       1   13701   13689   13698   13710       1
   13698   13704   13695   13707       1   13695   13704   13698   13710       1
   13692   13680   13686   13695       1   13689   13698   13704   13713       1
   13686   13677   13689   13701       1   13686   13695   13704   13713       1
   13683   13671   13680   13686       1   13683   13671   13680   13692       1
   13680   13686   13695   13707       1   13677   13686   13680   13692       1
   13677   13686   13695   13707       1   13677   13689   13698   13710       1
   13674   13656   13668   13677       1   13668   13653   13671   13683       1
   13668   13677   13689   13701       1   13659   13635   13656   13668       1
   13659   13635   13656   13674       1   13653   13632   13647   13665       1
   13653   13668   13656   13674       1   13653   13671   13680   13692       1
   13650   13629   13647   13665       1   13644   13626   13638   13662       1
   13641   13620   13638   13662       1   13632   13617   13635   13659       1
   13632   13647   13629   13650       1   13632   13653   13671   13683       1
   13629   13614   13626   13644       1   13626   13614   13629   13650       1
   13626   13638   13620   13641       1   13623   13611   13620   13638       1
   13623   13611   13620   13641       1   13620   13638   13626   13644       1
   13617   13608   13611   13623       1   13617   13632   13647   13665       1
   13617   13635   13656   13674       1   13614   13608   13611   13623       1
   13614   13626   13638   13662       1   13614   13629   13647   13665       1
   13611   13620   13638   13662       1   13608   13611   13620   13641       1
   13608   13614   13626   13644       1   13608   13614   13629   13650       1
   13608   13617   13635   13659       1   13818   13806   13812   13821       1
   13815   13803   13812   13821       1   13809   13797   13806   13812       1
   13809   13797   13806   13818       1   13806   13812   13803   13815       1
   13803   13812   13806   13818       1   13800   13788   13794   13803       1
   13797   13806   13812   13821       1   13794   13785   13797   13809       1
   13794   13803   13812   13821       1   13791   13779   13788   13794       1
   13791   13779   13788   13800       1   13788   13794   13803   13815       1
   13785   13794   13788   13800       1   13785   13794   13803   13815       1
   13785   13797   13806   13818       1   13782   13764   13776   13785       1
   13776   13761   13779   13791       1   13776   13785   13797   13809       1
   13767   13743   13764   13776       1   13767   13743   13764   13782       1
   13761   13740   13755   13773       1   13761   13776   13764   13782       1
   13761   13779   13788   13800       1   13758   13737   13755   13773       1
   13752   13734   13746   13770       1   13749   13728   13746   13770       1
   13740   13725   13743   13767       1   13740   13755   13737   13758       1
   13740   13761   13779   13791       1   13737   13722   13734   13752       1
   13734   13722   13737   13758       1   13734   13746   13728   13749       1
   13731   13719   13728   13746       1   13731   13719   13728   13749       1
   13728   13746   13734   13752       1   13725   13716   13719   13731       1
   13725   13740   13755   13773       1   13725   13743   13764   13782       1
   13722   13716   13719   13731       1   13722   13734   13746   13770       1
   13722   13737   13755   13773       1   13719   13728   13746   13770       1
   13716   13719   13728   13749       1   13716   13722   13734   13752       1
   13716   13722   13737   13758       1   13716   13725   13743   13767       1
   13926   13914   13920   13929       1   13923   13911   13920   13929       1
   13917   13905   13914   13920       1   13917   13905   13914   13926       1
   13914   13920   13911   13923       1   13911   13920   13914   13926       1
   13908   13896   13902   13911       1   13905   13914   13920   13929       1
   13902   13893   13905   13917       1   13902   13911   13920   13929       1
   13899   13887   13896   13902       1   13899   13887   13896   13908       1
   13896   13902   13911   13923       1   13893   13902   13896   13908       1
   13893   13902   13911   13923       1   13893   13905   13914   13926       1
   13890   13872   13884   13893       1   13884   13869   13887   13899       1
   13884   13893   13905   13917       1   13875   13851   13872   13884       1
   13875   13851   13872   13890       1   13869   13848   13863   13881       1
   13869   13884   13872   13890       1   13869   13887   13896   13908       1
   13866   13845   13863   13881       1   13860   13842   13854   13878       1
   13857   13836   13854   13878       1   13848   13833   13851   13875       1
   13848   13863   13845   13866       1   13848   13869   13887   13899       1
   13845   13830   13842   13860       1   13842   13830   13845   13866       1
   13842   13854   13836   13857       1   13839   13827   13836   13854       1
   13839   13827   13836   13857       1   13836   13854   13842   13860       1
   13833   13824   13827   13839       1   13833   13848   13863   13881       1
   13833   13851   13872   13890       1   13830   13824   13827   13839       1
   13830   13842   13854   13878       1   13830   13845   13863   13881       1
   13827   13836   13854   13878       1   13824   13827   13836   13857       1
   13824   13830   13842   13860       1   13824   13830   13845   13866       1
   13824   13833   13851   13875       1   14034   14022   14028   14037       1
   14031   14019   14028   14037       1   14025   14013   14022   14028       1
   14025   14013   14022   14034       1   14022   14028   14019   14031       1
   14019   14028   14022   14034       1   14016   14004   14010   14019       1
   14013   14022   14028   14037       1   14010   14001   14013   14025       1
   14010   14019   14028   14037       1   14007   13995   14004   14010       1
   14007   13995   14004   14016       1   14004   14010   14019   14031       1
   14001   14010   14004   14016       1   14001   14010   14019   14031       1
   14001   14013   14022   14034       1   13998   13980   13992   14001       1
   13992   13977   13995   14007       1   13992   14001   14013   14025       1
   13983   13959   13980   13992       1   13983   13959   13980   13998       1
   13977   13956   13971   13989       1   13977   13992   13980   13998       1
   13977   13995   14004   14016       1   13974   13953   13971   13989       1
   13968   13950   13962   13986       1   13965   13944   13962   13986       1
   13956   13941   13959   13983       1   13956   13971   13953   13974       1
   13956   13977   13995   14007       1   13953   13938   13950   13968       1
   13950   13938   13953   13974       1   13950   13962   13944   13965       1
   13947   13935   13944   13962       1   13947   13935   13944   13965       1
   13944   13962   13950   13968       1   13941   13932   13935   13947       1
   13941   13956   13971   13989       1   13941   13959   13980   13998       1
   13938   13932   13935   13947       1   13938   13950   13962   13986       1
   13938   13953   13971   13989       1   13935   13944   13962   13986       1
   13932   13935   13944   13965       1   13932   13938   13950   13968       1
   13932   13938   13953   13974       1   13932   13941   13959   13983       1
   14142   14130   14136   14145       1   14139   14127   14136   14145       1
   14133   14121   14130   14136       1   14133   14121   14130   14142       1
   14130   14136   14127   14139       1   14127   14136   14130   14142       1
   14124   14112   14118   14127       1   14121   14130   14136   14145       1
   14118   14109   14121   14133       1   14118   14127   14136   14145       1
   14115   14103   14112   14118       1   14115   14103   14112   14124       1
   14112   14118   14127   14139       1   14109   14118   14112   14124       1
   14109   14118   14127   14139       1   14109   14121   14130   14142       1
   14106   14088   14100   14109       1   14100   14085   14103   14115       1
   14100   14109   14121   14133       1   14091   14067   14088   14100       1
   14091   14067   14088   14106       1   14085   14064   14079   14097       1
   14085   14100   14088   14106       1   14085   14103   14112   14124       1
   14082   14061   14079   14097       1   14076   14058   14070   14094       1
   14073   14052   14070   14094       1   14064   14049   14067   14091       1
   14064   14079   14061   14082       1   14064   14085   14103   14115       1
   14061   14046   14058   14076       1   14058   14046   14061   14082       1
   14058   14070   14052   14073       1   14055   14043   14052   14070       1
   14055   14043   14052   14073       1   14052   14070   14058   14076       1
   14049   14040   14043   14055       1   14049   14064   14079   14097       1
   14049   14067   14088   14106       1   14046   14040   14043   14055       1
   14046   14058   14070   14094       1   14046   14061   14079   14097       1
   14043   14052   14070   14094       1   14040   14043   14052   14073       1
   14040   14046   14058   14076       1   14040   14046   14061   14082       1
   14040   14049   14067   14091       1   14250   14238   14244   14253       1
   14247   14235   14244   14253       1   14241   14229   14238   14244       1
   14241   14229   14238   14250       1   14238   14244   14235   14247       1
   14235   14244   14238   14250       1   14232   14220   14226   14235       1
   14229   14238   14244   14253       1   14226   14217   14229   14241       1
   14226   14235   14244   14253       1   14223   14211   14220   14226       1
   14223   14211   14220   14232       1   14220   14226   14235   14247       1
   14217   14226   14220   14232       1   14217   14226   14235   14247       1
   14217   14229   14238   14250       1   14214   14196   14208   14217       1
   14208   14193   14211   14223       1   14208   14217   14229   14241       1
   14199   14175   14196   14208       1   14199   14175   14196   14214       1
   14193   14172   14187   14205       1   14193   14208   14196   14214       1
   14193   14211   14220   14232       1   14190   14169   14187   14205       1
   14184   14166   14178   14202       1   14181   14160   14178   14202       1
   14172   14157   14175   14199       1   14172   14187   14169   14190       1
   14172   14193   14211   14223       1   14169   14154   14166   14184       1
   14166   14154   14169   14190       1   14166   14178   14160   14181       1
   14163   14151   14160   14178       1   14163   14151   14160   14181       1
   14160   14178   14166   14184       1   14157   14148   14151   14163       1
   14157   14172   14187   14205       1   14157   14175   14196   14214       1
   14154   14148   14151   14163       1   14154   14166   14178   14202       1
   14154   14169   14187   14205       1   14151   14160   14178   14202       1
   14148   14151   14160   14181       1   14148   14154   14166   14184       1
   14148   14154   14169   14190       1   14148   14157   14175   14199       1
   14358   14346   14352   14361       1   14355   14343   14352   14361       1
   14349   14337   14346   14352       1   14349   14337   14346   14358       1
   14346   14352   14343   14355       1   14343   14352   14346   14358       1
   14340   14328   14334   14343       1   14337   14346   14352   14361       1
   14334   14325   14337   14349       1   14334   14343   14352   14361       1
   14331   14319   14328   14334       1   14331   14319   14328   14340       1
   14328   14334   14343   14355       1   14325   14334   14328   14340       1
   14325   14334   14343   14355       1   14325   14337   14346   14358       1
   14322   14304   14316   14325       1   14316   14301   14319   14331       1
   14316   14325   14337   14349       1   14307   14283   14304   14316       1
   14307   14283   14304   14322       1   14301   14280   14295   14313       1
   14301   14316   14304   14322       1   14301   14319   14328   14340       1
   14298   14277   14295   14313       1   14292   14274   14286   14310       1
   14289   14268   14286   14310       1   14280   14265   14283   14307       1
   14280   14295   14277   14298       1   14280   14301   14319   14331       1
   14277   14262   14274   14292       1   14274   14262   14277   14298       1
   14274   14286   14268   14289       1   14271   14259   14268   14286       1
   14271   14259   14268   14289       1   14268   14286   14274   14292       1
   14265   14256   14259   14271       1   14265   14280   14295   14313       1
   14265   14283   14304   14322       1   14262   14256   14259   14271       1
   14262   14274   14286   14310       1   14262   14277   14295   14313       1
   14259   14268   14286   14310       1   14256   14259   14268   14289       1
   14256   14262   14274   14292       1   14256   14262   14277   14298       1
   14256   14265   14283   14307       1   14466   14454   14460   14469       1
   14463   14451   14460   14469       1   14457   14445   14454   14460       1
   14457   14445   14454   14466       1   14454   14460   14451   14463       1
   14451   14460   14454   14466       1   14448   14436   14442   14451       1
   14445   14454   14460   14469       1   14442   14433   14445   14457       1
   14442   14451   14460   14469       1   14439   14427   14436   14442       1
   14439   14427   14436   14448       1   14436   14442   14451   14463       1
   14433   14442   14436   14448       1   14433   14442   14451   14463       1
   14433   14445   14454   14466       1   14430   14412   14424   14433       1
   14424   14409   14427   14439       1   14424   14433   14445   14457       1
   14415   14391   14412   14424       1   14415   14391   14412   14430       1
   14409   14388   14403   14421       1   14409   14424   14412   14430       1
   14409   14427   14436   14448       1   14406   14385   14403   14421       1
   14400   14382   14394   14418       1   14397   14376   14394   14418       1
   14388   14373   14391   14415       1   14388   14403   14385   14406       1
   14388   14409   14427   14439       1   14385   14370   14382   14400       1
   14382   14370   14385   14406       1   14382   14394   14376   14397       1
   14379   14367   14376   14394       1   14379   14367   14376   14397       1
   14376   14394   14382   14400       1   14373   14364   14367   14379       1
   14373   14388   14403   14421       1   14373   14391   14412   14430       1
   14370   14364   14367   14379       1   14370   14382   14394   14418       1
   14370   14385   14403   14421       1   14367   14376   14394   14418       1
   14364   14367   14376   14397       1   14364   14370   14382   14400       1
   14364   14370   14385   14406       1   14364   14373   14391   14415       1
   14574   14562   14568   14577       1   14571   14559   14568   14577       1
   14565   14553   14562   14568       1   14565   14553   14562   14574       1
   14562   14568   14559   14571       1   14559   14568   14562   14574       1
   14556   14544   14550   14559       1   14553   14562   14568   14577       1
   14550   14541   14553   14565       1   14550   14559   14568   14577       1
   14547   14535   14544   14550       1   14547   14535   14544   14556       1
   14544   14550   14559   14571       1   14541   14550   14544   14556       1
   14541   14550   14559   14571       1   14541   14553   14562   14574       1
   14538   14520   14532   14541       1   14532   14517   14535   14547       1
   14532   14541   14553   14565       1   14523   14499   14520   14532       1
   14523   14499   14520   14538       1   14517   14496   14511   14529       1
   14517   14532   14520   14538       1   14517   14535   14544   14556       1
   14514   14493   14511   14529       1   14508   14490   14502   14526       1
   14505   14484   14502   14526       1   14496   14481   14499   14523       1
   14496   14511   14493   14514       1   14496   14517   14535   14547       1
   14493   14478   14490   14508       1   14490   14478   14493   14514       1
   14490   14502   14484   14505       1   14487   14475   14484   14502       1
   14487   14475   14484   14505       1   14484   14502   14490   14508       1
   14481   14472   14475   14487       1   14481   14496   14511   14529       1
   14481   14499   14520   14538       1   14478   14472   14475   14487       1
   14478   14490   14502   14526       1   14478   14493   14511   14529       1
   14475   14484   14502   14526       1   14472   14475   14484   14505       1
   14472   14478   14490   14508       1   14472   14478   14493   14514       1
   14472   14481   14499   14523       1   14682   14670   14676   14685       1
   14679   14667   14676   14685       1   14673   14661   14670   14676       1
   14673   14661   14670   14682       1   14670   14676   14667   14679       1
   14667   14676   14670   14682       1   14664   14652   14658   14667       1
   14661   14670   14676   14685       1   14658   14649   14661   14673       1
   14658   14667   14676   14685       1   14655   14643   14652   14658       1
   14655   14643   14652   14664       1   14652   14658   14667   14679       1
   14649   14658   14652   14664       1   14649   14658   14667   14679       1
   14649   14661   14670   14682       1   14646   14628   14640   14649       1
   14640   14625   14643   14655       1   14640   14649   14661   14673       1
   14631   14607   14628   14640       1   14631   14607   14628   14646       1
   14625   14604   14619   14637       1   14625   14640   14628   14646       1
   14625   14643   14652   14664       1   14622   14601   14619   14637       1
   14616   14598   14610   14634       1   14613   14592   14610   14634       1
   14604   14589   14607   14631       1   14604   14619   14601   14622       1
   14604   14625   14643   14655       1   14601   14586   14598   14616       1
   14598   14586   14601   14622       1   14598   14610   14592   14613       1
   14595   14583   14592   14610       1   14595   14583   14592   14613       1
   14592   14610   14598   14616       1   14589   14580   14583   14595       1
   14589   14604   14619   14637       1   14589   14607   14628   14646       1
   14586   14580   14583   14595       1   14586   14598   14610   14634       1
   14586   14601   14619   14637       1   14583   14592   14610   14634       1
   14580   14583   14592   14613       1   14580   14586   14598   14616       1
   14580   14586   14601   14622       1   14580   14589   14607   14631       1
   14790   14778   14784   14793       1   14787   14775   14784   14793       1
   14781   14769   14778   14784       1   14781   14769   14778   14790       1
   14778   14784   14775   14787       1   14775   14784   14778   14790       1
   14772   14760   14766   14775       1   14769   14778   14784   14793       1
   14766   14757   14769   14781       1   14766   14775   14784   14793       1
   14763   14751   14760   14766       1   14763   14751   14760   14772       1
   14760   14766   14775   14787       1   14757   14766   14760   14772       1
   14757   14766   14775   14787       1   14757   14769   14778   14790       1
   14754   14736   14748   14757       1   14748   14733   14751   14763       1
   14748   14757   14769   14781       1   14739   14715   14736   14748       1
   14739   14715   14736   14754       1   14733   14712   14727   14745       1
   14733   14748   14736   14754       1   14733   14751   14760   14772       1
   14730   14709   14727   14745       1   14724   14706   14718   14742       1
   14721   14700   14718   14742       1   14712   14697   14715   14739       1
   14712   14727   14709   14730       1   14712   14733   14751   14763       1
   14709   14694   14706   14724       1   14706   14694   14709   14730       1
   14706   14718   14700   14721       1   14703   14691   14700   14718       1
   14703   14691   14700   14721       1   14700   14718   14706   14724       1
   14697   14688   14691   14703       1   14697   14712   14727   14745       1
   14697   14715   14736   14754       1   14694   14688   14691   14703       1
   14694   14706   14718   14742       1   14694   14709   14727   14745       1
   14691   14700   14718   14742       1   14688   14691   14700   14721       1
   14688   14694   14706   14724       1   14688   14694   14709   14730       1
   14688   14697   14715   14739       1   14898   14886   14892   14901       1
   14895   14883   14892   14901       1   14889   14877   14886   14892       1
   14889   14877   14886   14898       1   14886   14892   14883   14895       1
   14883   14892   14886   14898       1   14880   14868   14874   14883       1
   14877   14886   14892   14901       1   14874   14865   14877   14889       1
   14874   14883   14892   14901       1   14871   14859   14868   14874       1
   14871   14859   14868   14880       1   14868   14874   14883   14895       1
   14865   14874   14868   14880       1   14865   14874   14883   14895       1
   14865   14877   14886   14898       1   14862   14844   14856   14865       1
   14856   14841   14859   14871       1   14856   14865   14877   14889       1
   14847   14823   14844   14856       1   14847   14823   14844   14862       1
   14841   14820   14835   14853       1   14841   14856   14844   14862       1
   14841   14859   14868   14880       1   14838   14817   14835   14853       1
   14832   14814   14826   14850       1   14829   14808   14826   14850       1
   14820   14805   14823   14847       1   14820   14835   14817   14838       1
   14820   14841   14859   14871       1   14817   14802   14814   14832       1
   14814   14802   14817   14838       1   14814   14826   14808   14829       1
   14811   14799   14808   14826       1   14811   14799   14808   14829       1
   14808   14826   14814   14832       1   14805   14796   14799   14811       1
   14805   14820   14835   14853       1   14805   14823   14844   14862       1
   14802   14796   14799   14811       1   14802   14814   14826   14850       1
   14802   14817   14835   14853       1   14799   14808   14826   14850       1
   14796   14799   14808   14829       1   14796   14802   14814   14832       1
   14796   14802   14817   14838       1   14796   14805   14823   14847       1
   15006   14994   15000   15009       1   15003   14991   15000   15009       1
   14997   14985   14994   15000       1   14997   14985   14994   15006       1
   14994   15000   14991   15003       1   14991   15000   14994   15006       1
   14988   14976   14982   14991       1   14985   14994   15000   15009       1
   14982   14973   14985   14997       1   14982   14991   15000   15009       1
   14979   14967   14976   14982       1   14979   14967   14976   14988       1
   14976   14982   14991   15003       1   14973   14982   14976   14988       1
   14973   14982   14991   15003       1   14973   14985   14994   15006       1
   14970   14952   14964   14973       1   14964   14949   14967   14979       1
   14964   14973   14985   14997       1   14955   14931   14952   14964       1
   14955   14931   14952   14970       1   14949   14928   14943   14961       1
   14949   14964   14952   14970       1   14949   14967   14976   14988       1
   14946   14925   14943   14961       1   14940   14922   14934   14958       1
   14937   14916   14934   14958       1   14928   14913   14931   14955       1
   14928   14943   14925   14946       1   14928   14949   14967   14979       1
   14925   14910   14922   14940       1   14922   14910   14925   14946       1
   14922   14934   14916   14937       1   14919   14907   14916   14934       1
   14919   14907   14916   14937       1   14916   14934   14922   14940       1
   14913   14904   14907   14919       1   14913   14928   14943   14961       1
   14913   14931   14952   14970       1   14910   14904   14907   14919       1
   14910   14922   14934   14958       1   14910   14925   14943   14961       1
   14907   14916   14934   14958       1   14904   14907   14916   14937       1
   14904   14910   14922   14940       1   14904   14910   14925   14946       1
   14904   14913   14931   14955       1   15114   15102   15108   15117       1
   15111   15099   15108   15117       1   15105   15093   15102   15108       1
   15105   15093   15102   15114       1   15102   15108   15099   15111       1
   15099   15108   15102   15114       1   15096   15084   15090   15099       1
   15093   15102   15108   15117       1   15090   15081   15093   15105       1
   15090   15099   15108   15117       1   15087   15075   15084   15090       1
   15087   15075   15084   15096       1   15084   15090   15099   15111       1
   15081   15090   15084   15096       1   15081   15090   15099   15111       1
   15081   15093   15102   15114       1   15078   15060   15072   15081       1
   15072   15057   15075   15087       1   15072   15081   15093   15105       1
   15063   15039   15060   15072       1   15063   15039   15060   15078       1
   15057   15036   15051   15069       1   15057   15072   15060   15078       1
   15057   15075   15084   15096       1   15054   15033   15051   15069       1
   15048   15030   15042   15066       1   15045   15024   15042   15066       1
   15036   15021   15039   15063       1   15036   15051   15033   15054       1
   15036   15057   15075   15087       1   15033   15018   15030   15048       1
   15030   15018   15033   15054       1   15030   15042   15024   15045       1
   15027   15015   15024   15042       1   15027   15015   15024   15045       1
   15024   15042   15030   15048       1   15021   15012   15015   15027       1
   15021   15036   15051   15069       1   15021   15039   15060   15078       1
   15018   15012   15015   15027       1   15018   15030   15042   15066       1
   15018   15033   15051   15069       1   15015   15024   15042   15066       1
   15012   15015   15024   15045       1   15012   15018   15030   15048       1
   15012   15018   15033   15054       1   15012   15021   15039   15063       1
   15222   15210   15216   15225       1   15219   15207   15216   15225       1
   15213   15201   15210   15216       1   15213   15201   15210   15222       1
   15210   15216   15207   15219       1   15207   15216   15210   15222       1
   15204   15192   15198   15207       1   15201   15210   15216   15225       1
   15198   15189   15201   15213       1   15198   15207   15216   15225       1
   15195   15183   15192   15198       1   15195   15183   15192   15204       1
   15192   15198   15207   15219       1   15189   15198   15192   15204       1
   15189   15198   15207   15219       1   15189   15201   15210   15222       1
   15186   15168   15180   15189       1   15180   15165   15183   15195       1
   15180   15189   15201   15213       1   15171   15147   15168   15180       1
   15171   15147   15168   15186       1   15165   15144   15159   15177       1
   15165   15180   15168   15186       1   15165   15183   15192   15204       1
   15162   15141   15159   15177       1   15156   15138   15150   15174       1
   15153   15132   15150   15174       1   15144   15129   15147   15171       1
   15144   15159   15141   15162       1   15144   15165   15183   15195       1
   15141   15126   15138   15156       1   15138   15126   15141   15162       1
   15138   15150   15132   15153       1   15135   15123   15132   15150       1
   15135   15123   15132   15153       1   15132   15150   15138   15156       1
   15129   15120   15123   15135       1   15129   15144   15159   15177       1
   15129   15147   15168   15186       1   15126   15120   15123   15135       1
   15126   15138   15150   15174       1   15126   15141   15159   15177       1
   15123   15132   15150   15174       1   15120   15123   15132   15153       1
   15120   15126   15138   15156       1   15120   15126   15141   15162       1
   15120   15129   15147   15171       1   15330   15318   15324   15333       1
   15327   15315   15324   15333       1   15321   15309   15318   15324       1
   15321   15309   15318   15330       1   15318   15324   15315   15327       1
   15315   15324   15318   15330       1   15312   15300   15306   15315       1
   15309   15318   15324   15333       1   15306   15297   15309   15321       1
   15306   15315   15324   15333       1   15303   15291   15300   15306       1
   15303   15291   15300   15312       1   15300   15306   15315   15327       1
   15297   15306   15300   15312       1   15297   15306   15315   15327       1
   15297   15309   15318   15330       1   15294   15276   15288   15297       1
   15288   15273   15291   15303       1   15288   15297   15309   15321       1
   15279   15255   15276   15288       1   15279   15255   15276   15294       1
   15273   15252   15267   15285       1   15273   15288   15276   15294       1
   15273   15291   15300   15312       1   15270   15249   15267   15285       1
   15264   15246   15258   15282       1   15261   15240   15258   15282       1
   15252   15237   15255   15279       1   15252   15267   15249   15270       1
   15252   15273   15291   15303       1   15249   15234   15246   15264       1
   15246   15234   15249   15270       1   15246   15258   15240   15261       1
   15243   15231   15240   15258       1   15243   15231   15240   15261       1
   15240   15258   15246   15264       1   15237   15228   15231   15243       1
   15237   15252   15267   15285       1   15237   15255   15276   15294       1
   15234   15228   15231   15243       1   15234   15246   15258   15282       1
   15234   15249   15267   15285       1   15231   15240   15258   15282       1
   15228   15231   15240   15261       1   15228   15234   15246   15264       1
   15228   15234   15249   15270       1   15228   15237   15255   15279       1
   15438   15426   15432   15441       1   15435   15423   15432   15441       1
   15429   15417   15426   15432       1   15429   15417   15426   15438       1
   15426   15432   15423   15435       1   15423   15432   15426   15438       1
   15420   15408   15414   15423       1   15417   15426   15432   15441       1
   15414   15405   15417   15429       1   15414   15423   15432   15441       1
   15411   15399   15408   15414       1   15411   15399   15408   15420       1
   15408   15414   15423   15435       1   15405   15414   15408   15420       1
   15405   15414   15423   15435       1   15405   15417   15426   15438       1
   15402   15384   15396   15405       1   15396   15381   15399   15411       1
   15396   15405   15417   15429       1   15387   15363   15384   15396       1
   15387   15363   15384   15402       1   15381   15360   15375   15393       1
   15381   15396   15384   15402       1   15381   15399   15408   15420       1
   15378   15357   15375   15393       1   15372   15354   15366   15390       1
   15369   15348   15366   15390       1   15360   15345   15363   15387       1
   15360   15375   15357   15378       1   15360   15381   15399   15411       1
   15357   15342   15354   15372       1   15354   15342   15357   15378       1
   15354   15366   15348   15369       1   15351   15339   15348   15366       1
   15351   15339   15348   15369       1   15348   15366   15354   15372       1
   15345   15336   15339   15351       1   15345   15360   15375   15393       1
   15345   15363   15384   15402       1   15342   15336   15339   15351       1
   15342   15354   15366   15390       1   15342   15357   15375   15393       1
   15339   15348   15366   15390       1   15336   15339   15348   15369       1
   15336   15342   15354   15372       1   15336   15342   15357   15378       1
   15336   15345   15363   15387       1   15546   15534   15540   15549       1
   15543   15531   15540   15549       1   15537   15525   15534   15540       1
   15537   15525   15534   15546       1   15534   15540   15531   15543       1
   15531   15540   15534   15546       1   15528   15516   15522   15531       1
   15525   15534   15540   15549       1   15522   15513   15525   15537       1
   15522   15531   15540   15549       1   15519   15507   15516   15522       1
   15519   15507   15516   15528       1   15516   15522   15531   15543       1
   15513   15522   15516   15528       1   15513   15522   15531   15543       1
   15513   15525   15534   15546       1   15510   15492   15504   15513       1
   15504   15489   15507   15519       1   15504   15513   15525   15537       1
   15495   15471   15492   15504       1   15495   15471   15492   15510       1
   15489   15468   15483   15501       1   15489   15504   15492   15510       1
   15489   15507   15516   15528       1   15486   15465   15483   15501       1
   15480   15462   15474   15498       1   15477   15456   15474   15498       1
   15468   15453   15471   15495       1   15468   15483   15465   15486       1
   15468   15489   15507   15519       1   15465   15450   15462   15480       1
   15462   15450   15465   15486       1   15462   15474   15456   15477       1
   15459   15447   15456   15474       1   15459   15447   15456   15477       1
   15456   15474   15462   15480       1   15453   15444   15447   15459       1
   15453   15468   15483   15501       1   15453   15471   15492   15510       1
   15450   15444   15447   15459       1   15450   15462   15474   15498       1
   15450   15465   15483   15501       1   15447   15456   15474   15498       1
   15444   15447   15456   15477       1   15444   15450   15462   15480       1
   15444   15450   15465   15486       1   15444   15453   15471   15495       1
   15654   15642   15648   15657       1   15651   15639   15648   15657       1
   15645   15633   15642   15648       1   15645   15633   15642   15654       1
   15642   15648   15639   15651       1   15639   15648   15642   15654       1
   15636   15624   15630   15639       1   15633   15642   15648   15657       1
   15630   15621   15633   15645       1   15630   15639   15648   15657       1
   15627   15615   15624   15630       1   15627   15615   15624   15636       1
   15624   15630   15639   15651       1   15621   15630   15624   15636       1
   15621   15630   15639   15651       1   15621   15633   15642   15654       1
   15618   15600   15612   15621       1   15612   15597   15615   15627       1
   15612   15621   15633   15645       1   15603   15579   15600   15612       1
   15603   15579   15600   15618       1   15597   15576   15591   15609       1
   15597   15612   15600   15618       1   15597   15615   15624   15636       1
   15594   15573   15591   15609       1   15588   15570   15582   15606       1
   15585   15564   15582   15606       1   15576   15561   15579   15603       1
   15576   15591   15573   15594       1   15576   15597   15615   15627       1
   15573   15558   15570   15588       1   15570   15558   15573   15594       1
   15570   15582   15564   15585       1   15567   15555   15564   15582       1
   15567   15555   15564   15585       1   15564   15582   15570   15588       1
   15561   15552   15555   15567       1   15561   15576   15591   15609       1
   15561   15579   15600   15618       1   15558   15552   15555   15567       1
   15558   15570   15582   15606       1   15558   15573   15591   15609       1
   15555   15564   15582   15606       1   15552   15555   15564   15585       1
   15552   15558   15570   15588       1   15552   15558   15573   15594       1
   15552   15561   15579   15603       1   15762   15750   15756   15765       1
   15759   15747   15756   15765       1   15753   15741   15750   15756       1
   15753   15741   15750   15762       1   15750   15756   15747   15759       1
   15747   15756   15750   15762       1   15744   15732   15738   15747       1
   15741   15750   15756   15765       1   15738   15729   15741   15753       1
   15738   15747   15756   15765       1   15735   15723   15732   15738       1
   15735   15723   15732   15744       1   15732   15738   15747   15759       1
   15729   15738   15732   15744       1   15729   15738   15747   15759       1
   15729   15741   15750   15762       1   15726   15708   15720   15729       1
   15720   15705   15723   15735       1   15720   15729   15741   15753       1
   15711   15687   15708   15720       1   15711   15687   15708   15726       1
   15705   15684   15699   15717       1   15705   15720   15708   15726       1
   15705   15723   15732   15744       1   15702   15681   15699   15717       1
   15696   15678   15690   15714       1   15693   15672   15690   15714       1
   15684   15669   15687   15711       1   15684   15699   15681   15702       1
   15684   15705   15723   15735       1   15681   15666   15678   15696       1
   15678   15666   15681   15702       1   15678   15690   15672   15693       1
   15675   15663   15672   15690       1   15675   15663   15672   15693       1
   15672   15690   15678   15696       1   15669   15660   15663   15675       1
   15669   15684   15699   15717       1   15669   15687   15708   15726       1
   15666   15660   15663   15675       1   15666   15678   15690   15714       1
   15666   15681   15699   15717       1   15663   15672   15690   15714       1
   15660   15663   15672   15693       1   15660   15666   15678   15696       1
   15660   15666   15681   15702       1   15660   15669   15687   15711       1
   15870   15858   15864   15873       1   15867   15855   15864   15873       1
   15861   15849   15858   15864       1   15861   15849   15858   15870       1
   15858   15864   15855   15867       1   15855   15864   15858   15870       1
   15852   15840   15846   15855       1   15849   15858   15864   15873       1
   15846   15837   15849   15861       1   15846   15855   15864   15873       1
   15843   15831   15840   15846       1   15843   15831   15840   15852       1
   15840   15846   15855   15867       1   15837   15846   15840   15852       1
   15837   15846   15855   15867       1   15837   15849   15858   15870       1
   15834   15816   15828   15837       1   15828   15813   15831   15843       1
   15828   15837   15849   15861       1   15819   15795   15816   15828       1
   15819   15795   15816   15834       1   15813   15792   15807   15825       1
   15813   15828   15816   15834       1   15813   15831   15840   15852       1
   15810   15789   15807   15825       1   15804   15786   15798   15822       1
   15801   15780   15798   15822       1   15792   15777   15795   15819       1
   15792   15807   15789   15810       1   15792   15813   15831   15843       1
   15789   15774   15786   15804       1   15786   15774   15789   15810       1
   15786   15798   15780   15801       1   15783   15771   15780   15798       1
   15783   15771   15780   15801       1   15780   15798   15786   15804       1
   15777   15768   15771   15783       1   15777   15792   15807   15825       1
   15777   15795   15816   15834       1   15774   15768   15771   15783       1
   15774   15786   15798   15822       1   15774   15789   15807   15825       1
   15771   15780   15798   15822       1   15768   15771   15780   15801       1
   15768   15774   15786   15804       1   15768   15774   15789   15810       1
   15768   15777   15795   15819       1   15978   15966   15972   15981       1
   15975   15963   15972   15981       1   15969   15957   15966   15972       1
   15969   15957   15966   15978       1   15966   15972   15963   15975       1
   15963   15972   15966   15978       1   15960   15948   15954   15963       1
   15957   15966   15972   15981       1   15954   15945   15957   15969       1
   15954   15963   15972   15981       1   15951   15939   15948   15954       1
   15951   15939   15948   15960       1   15948   15954   15963   15975       1
   15945   15954   15948   15960       1   15945   15954   15963   15975       1
   15945   15957   15966   15978       1   15942   15924   15936   15945       1
   15936   15921   15939   15951       1   15936   15945   15957   15969       1
   15927   15903   15924   15936       1   15927   15903   15924   15942       1
   15921   15900   15915   15933       1   15921   15936   15924   15942       1
   15921   15939   15948   15960       1   15918   15897   15915   15933       1
   15912   15894   15906   15930       1   15909   15888   15906   15930       1
   15900   15885   15903   15927       1   15900   15915   15897   15918       1
   15900   15921   15939   15951       1   15897   15882   15894   15912       1
   15894   15882   15897   15918       1   15894   15906   15888   15909       1
   15891   15879   15888   15906       1   15891   15879   15888   15909       1
   15888   15906   15894   15912       1   15885   15876   15879   15891       1
   15885   15900   15915   15933       1   15885   15903   15924   15942       1
   15882   15876   15879   15891       1   15882   15894   15906   15930       1
   15882   15897   15915   15933       1   15879   15888   15906   15930       1
   15876   15879   15888   15909       1   15876   15882   15894   15912       1
   15876   15882   15897   15918       1   15876   15885   15903   15927       1
   16086   16074   16080   16089       1   16083   16071   16080   16089       1
   16077   16065   16074   16080       1   16077   16065   16074   16086       1
   16074   16080   16071   16083       1   16071   16080   16074   16086       1
   16068   16056   16062   16071       1   16065   16074   16080   16089       1
   16062   16053   16065   16077       1   16062   16071   16080   16089       1
   16059   16047   16056   16062       1   16059   16047   16056   16068       1
   16056   16062   16071   16083       1   16053   16062   16056   16068       1
   16053   16062   16071   16083       1   16053   16065   16074   16086       1
   16050   16032   16044   16053       1   16044   16029   16047   16059       1
   16044   16053   16065   16077       1   16035   16011   16032   16044       1
   16035   16011   16032   16050       1   16029   16008   16023   16041       1
   16029   16044   16032   16050       1   16029   16047   16056   16068       1
   16026   16005   16023   16041       1   16020   16002   16014   16038       1
   16017   15996   16014   16038       1   16008   15993   16011   16035       1
   16008   16023   16005   16026       1   16008   16029   16047   16059       1
   16005   15990   16002   16020       1   16002   15990   16005   16026       1
   16002   16014   15996   16017       1   15999   15987   15996   16014       1
   15999   15987   15996   16017       1   15996   16014   16002   16020       1
   15993   15984   15987   15999       1   15993   16008   16023   16041       1
   15993   16011   16032   16050       1   15990   15984   15987   15999       1
   15990   16002   16014   16038       1   15990   16005   16023   16041       1
   15987   15996   16014   16038       1   15984   15987   15996   16017       1
   15984   15990   16002   16020       1   15984   15990   16005   16026       1
   15984   15993   16011   16035       1   16194   16182   16188   16197       1
   16191   16179   16188   16197       1   16185   16173   16182   16188       1
   16185   16173   16182   16194       1   16182   16188   16179   16191       1
   16179   16188   16182   16194       1   16176   16164   16170   16179       1
   16173   16182   16188   16197       1   16170   16161   16173   16185       1
   16170   16179   16188   16197       1   16167   16155   16164   16170       1
   16167   16155   16164   16176       1   16164   16170   16179   16191       1
   16161   16170   16164   16176       1   16161   16170   16179   16191       1
   16161   16173   16182   16194       1   16158   16140   16152   16161       1
   16152   16137   16155   16167       1   16152   16161   16173   16185       1
   16143   16119   16140   16152       1   16143   16119   16140   16158       1
   16137   16116   16131   16149       1   16137   16152   16140   16158       1
   16137   16155   16164   16176       1   16134   16113   16131   16149       1
   16128   16110   16122   16146       1   16125   16104   16122   16146       1
   16116   16101   16119   16143       1   16116   16131   16113   16134       1
   16116   16137   16155   16167       1   16113   16098   16110   16128       1
   16110   16098   16113   16134       1   16110   16122   16104   16125       1
   16107   16095   16104   16122       1   16107   16095   16104   16125       1
   16104   16122   16110   16128       1   16101   16092   16095   16107       1
   16101   16116   16131   16149       1   16101   16119   16140   16158       1
   16098   16092   16095   16107       1   16098   16110   16122   16146       1
   16098   16113   16131   16149       1   16095   16104   16122   16146       1
   16092   16095   16104   16125       1   16092   16098   16110   16128       1
   16092   16098   16113   16134       1   16092   16101   16119   16143       1
   16302   16290   16296   16305       1   16299   16287   16296   16305       1
   16293   16281   16290   16296       1   16293   16281   16290   16302       1
   16290   16296   16287   16299       1   16287   16296   16290   16302       1
   16284   16272   16278   16287       1   16281   16290   16296   16305       1
   16278   16269   16281   16293       1   16278   16287   16296   16305       1
   16275   16263   16272   16278       1   16275   16263   16272   16284       1
   16272   16278   16287   16299       1   16269   16278   16272   16284       1
   16269   16278   16287   16299       1   16269   16281   16290   16302       1
   16266   16248   16260   16269       1   16260   16245   16263   16275       1
   16260   16269   16281   16293       1   16251   16227   16248   16260       1
   16251   16227   16248   16266       1   16245   16224   16239   16257       1
   16245   16260   16248   16266       1   16245   16263   16272   16284       1
   16242   16221   16239   16257       1   16236   16218   16230   16254       1
   16233   16212   16230   16254       1   16224   16209   16227   16251       1
   16224   16239   16221   16242       1   16224   16245   16263   16275       1
   16221   16206   16218   16236       1   16218   16206   16221   16242       1
   16218   16230   16212   16233       1   16215   16203   16212   16230       1
   16215   16203   16212   16233       1   16212   16230   16218   16236       1
   16209   16200   16203   16215       1   16209   16224   16239   16257       1
   16209   16227   16248   16266       1   16206   16200   16203   16215       1
   16206   16218   16230   16254       1   16206   16221   16239   16257       1
   16203   16212   16230   16254       1   16200   16203   16212   16233       1
   16200   16206   16218   16236       1   16200   16206   16221   16242       1
   16200   16209   16227   16251       1   16410   16398   16404   16413       1
   16407   16395   16404   16413       1   16401   16389   16398   16404       1
   16401   16389   16398   16410       1   16398   16404   16395   16407       1
   16395   16404   16398   16410       1   16392   16380   16386   16395       1
   16389   16398   16404   16413       1   16386   16377   16389   16401       1
   16386   16395   16404   16413       1   16383   16371   16380   16386       1
   16383   16371   16380   16392       1   16380   16386   16395   16407       1
   16377   16386   16380   16392       1   16377   16386   16395   16407       1
   16377   16389   16398   16410       1   16374   16356   16368   16377       1
   16368   16353   16371   16383       1   16368   16377   16389   16401       1
   16359   16335   16356   16368       1   16359   16335   16356   16374       1
   16353   16332   16347   16365       1   16353   16368   16356   16374       1
   16353   16371   16380   16392       1   16350   16329   16347   16365       1
   16344   16326   16338   16362       1   16341   16320   16338   16362       1
   16332   16317   16335   16359       1   16332   16347   16329   16350       1
   16332   16353   16371   16383       1   16329   16314   16326   16344       1
   16326   16314   16329   16350       1   16326   16338   16320   16341       1
   16323   16311   16320   16338       1   16323   16311   16320   16341       1
   16320   16338   16326   16344       1   16317   16308   16311   16323       1
   16317   16332   16347   16365       1   16317   16335   16356   16374       1
   16314   16308   16311   16323       1   16314   16326   16338   16362       1
   16314   16329   16347   16365       1   16311   16320   16338   16362       1
   16308   16311   16320   16341       1   16308   16314   16326   16344       1
   16308   16314   16329   16350       1   16308   16317   16335   16359       1
   16518   16506   16512   16521       1   16515   16503   16512   16521       1
   16509   16497   16506   16512       1   16509   16497   16506   16518       1
   16506   16512   16503   16515       1   16503   16512   16506   16518       1
   16500   16488   16494   16503       1   16497   16506   16512   16521       1
   16494   16485   16497   16509       1   16494   16503   16512   16521       1
   16491   16479   16488   16494       1   16491   16479   16488   16500       1
   16488   16494   16503   16515       1   16485   16494   16488   16500       1
   16485   16494   16503   16515       1   16485   16497   16506   16518       1
   16482   16464   16476   16485       1   16476   16461   16479   16491       1
   16476   16485   16497   16509       1   16467   16443   16464   16476       1
   16467   16443   16464   16482       1   16461   16440   16455   16473       1
   16461   16476   16464   16482       1   16461   16479   16488   16500       1
   16458   16437   16455   16473       1   16452   16434   16446   16470       1
   16449   16428   16446   16470       1   16440   16425   16443   16467       1
   16440   16455   16437   16458       1   16440   16461   16479   16491       1
   16437   16422   16434   16452       1   16434   16422   16437   16458       1
   16434   16446   16428   16449       1   16431   16419   16428   16446       1
   16431   16419   16428   16449       1   16428   16446   16434   16452       1
   16425   16416   16419   16431       1   16425   16440   16455   16473       1
   16425   16443   16464   16482       1   16422   16416   16419   16431       1
   16422   16434   16446   16470       1   16422   16437   16455   16473       1
   16419   16428   16446   16470       1   16416   16419   16428   16449       1
   16416   16422   16434   16452       1   16416   16422   16437   16458       1
   16416   16425   16443   16467       1   16626   16614   16620   16629       1
   16623   16611   16620   16629       1   16617   16605   16614   16620       1
   16617   16605   16614   16626       1   16614   16620   16611   16623       1
   16611   16620   16614   16626       1   16608   16596   16602   16611       1
   16605   16614   16620   16629       1   16602   16593   16605   16617       1
   16602   16611   16620   16629       1   16599   16587   16596   16602       1
   16599   16587   16596   16608       1   16596   16602   16611   16623       1
   16593   16602   16596   16608       1   16593   16602   16611   16623       1
   16593   16605   16614   16626       1   16590   16572   16584   16593       1
   16584   16569   16587   16599       1   16584   16593   16605   16617       1
   16575   16551   16572   16584       1   16575   16551   16572   16590       1
   16569   16548   16563   16581       1   16569   16584   16572   16590       1
   16569   16587   16596   16608       1   16566   16545   16563   16581       1
   16560   16542   16554   16578       1   16557   16536   16554   16578       1
   16548   16533   16551   16575       1   16548   16563   16545   16566       1
   16548   16569   16587   16599       1   16545   16530   16542   16560       1
   16542   16530   16545   16566       1   16542   16554   16536   16557       1
   16539   16527   16536   16554       1   16539   16527   16536   16557       1
   16536   16554   16542   16560       1   16533   16524   16527   16539       1
   16533   16548   16563   16581       1   16533   16551   16572   16590       1
   16530   16524   16527   16539       1   16530   16542   16554   16578       1
   16530   16545   16563   16581       1   16527   16536   16554   16578       1
   16524   16527   16536   16557       1   16524   16530   16542   16560       1
   16524   16530   16545   16566       1   16524   16533   16551   16575       1
   16734   16722   16728   16737       1   16731   16719   16728   16737       1
   16725   16713   16722   16728       1   16725   16713   16722   16734       1
   16722   16728   16719   16731       1   16719   16728   16722   16734       1
   16716   16704   16710   16719       1   16713   16722   16728   16737       1
   16710   16701   16713   16725       1   16710   16719   16728   16737       1
   16707   16695   16704   16710       1   16707   16695   16704   16716       1
   16704   16710   16719   16731       1   16701   16710   16704   16716       1
   16701   16710   16719   16731       1   16701   16713   16722   16734       1
   16698   16680   16692   16701       1   16692   16677   16695   16707       1
   16692   16701   16713   16725       1   16683   16659   16680   16692       1
   16683   16659   16680   16698       1   16677   16656   16671   16689       1
   16677   16692   16680   16698       1   16677   16695   16704   16716       1
   16674   16653   16671   16689       1   16668   16650   16662   16686       1
   16665   16644   16662   16686       1   16656   16641   16659   16683       1
   16656   16671   16653   16674       1   16656   16677   16695   16707       1
   16653   16638   16650   16668       1   16650   16638   16653   16674       1
   16650   16662   16644   16665       1   16647   16635   16644   16662       1
   16647   16635   16644   16665       1   16644   16662   16650   16668       1
   16641   16632   16635   16647       1   16641   16656   16671   16689       1
   16641   16659   16680   16698       1   16638   16632   16635   16647       1
   16638   16650   16662   16686       1   16638   16653   16671   16689       1
   16635   16644   16662   16686       1   16632   16635   16644   16665       1
   16632   16638   16650   16668       1   16632   16638   16653   16674       1
   16632   16641   16659   16683       1   16842   16830   16836   16845       1
   16839   16827   16836   16845       1   16833   16821   16830   16836       1
   16833   16821   16830   16842       1   16830   16836   16827   16839       1
   16827   16836   16830   16842       1   16824   16812   16818   16827       1
   16821   16830   16836   16845       1   16818   16809   16821   16833       1
   16818   16827   16836   16845       1   16815   16803   16812   16818       1
   16815   16803   16812   16824       1   16812   16818   16827   16839       1
   16809   16818   16812   16824       1   16809   16818   16827   16839       1
   16809   16821   16830   16842       1   16806   16788   16800   16809       1
   16800   16785   16803   16815       1   16800   16809   16821   16833       1
   16791   16767   16788   16800       1   16791   16767   16788   16806       1
   16785   16764   16779   16797       1   16785   16800   16788   16806       1
   16785   16803   16812   16824       1   16782   16761   16779   16797       1
   16776   16758   16770   16794       1   16773   16752   16770   16794       1
   16764   16749   16767   16791       1   16764   16779   16761   16782       1
   16764   16785   16803   16815       1   16761   16746   16758   16776       1
   16758   16746   16761   16782       1   16758   16770   16752   16773       1
   16755   16743   16752   16770       1   16755   16743   16752   16773       1
   16752   16770   16758   16776       1   16749   16740   16743   16755       1
   16749   16764   16779   16797       1   16749   16767   16788   16806       1
   16746   16740   16743   16755       1   16746   16758   16770   16794       1
   16746   16761   16779   16797       1   16743   16752   16770   16794       1
   16740   16743   16752   16773       1   16740   16746   16758   16776       1
   16740   16746   16761   16782       1   16740   16749   16767   16791       1
   16950   16938   16944   16953       1   16947   16935   16944   16953       1
   16941   16929   16938   16944       1   16941   16929   16938   16950       1
   16938   16944   16935   16947       1   16935   16944   16938   16950       1
   16932   16920   16926   16935       1   16929   16938   16944   16953       1
   16926   16917   16929   16941       1   16926   16935   16944   16953       1
   16923   16911   16920   16926       1   16923   16911   16920   16932       1
   16920   16926   16935   16947       1   16917   16926   16920   16932       1
   16917   16926   16935   16947       1   16917   16929   16938   16950       1
   16914   16896   16908   16917       1   16908   16893   16911   16923       1
   16908   16917   16929   16941       1   16899   16875   16896   16908       1
   16899   16875   16896   16914       1   16893   16872   16887   16905       1
   16893   16908   16896   16914       1   16893   16911   16920   16932       1
   16890   16869   16887   16905       1   16884   16866   16878   16902       1
   16881   16860   16878   16902       1   16872   16857   16875   16899       1
   16872   16887   16869   16890       1   16872   16893   16911   16923       1
   16869   16854   16866   16884       1   16866   16854   16869   16890       1
   16866   16878   16860   16881       1   16863   16851   16860   16878       1
   16863   16851   16860   16881       1   16860   16878   16866   16884       1
   16857   16848   16851   16863       1   16857   16872   16887   16905       1
   16857   16875   16896   16914       1   16854   16848   16851   16863       1
   16854   16866   16878   16902       1   16854   16869   16887   16905       1
   16851   16860   16878   16902       1   16848   16851   16860   16881       1
   16848   16854   16866   16884       1   16848   16854   16869   16890       1
   16848   16857   16875   16899       1   17058   17046   17052   17061       1
   17055   17043   17052   17061       1   17049   17037   17046   17052       1
   17049   17037   17046   17058       1   17046   17052   17043   17055       1
   17043   17052   17046   17058       1   17040   17028   17034   17043       1
   17037   17046   17052   17061       1   17034   17025   17037   17049       1
   17034   17043   17052   17061       1   17031   17019   17028   17034       1
   17031   17019   17028   17040       1   17028   17034   17043   17055       1
   17025   17034   17028   17040       1   17025   17034   17043   17055       1
   17025   17037   17046   17058       1   17022   17004   17016   17025       1
   17016   17001   17019   17031       1   17016   17025   17037   17049       1
   17007   16983   17004   17016       1   17007   16983   17004   17022       1
   17001   16980   16995   17013       1   17001   17016   17004   17022       1
   17001   17019   17028   17040       1   16998   16977   16995   17013       1
   16992   16974   16986   17010       1   16989   16968   16986   17010       1
   16980   16965   16983   17007       1   16980   16995   16977   16998       1
   16980   17001   17019   17031       1   16977   16962   16974   16992       1
   16974   16962   16977   16998       1   16974   16986   16968   16989       1
   16971   16959   16968   16986       1   16971   16959   16968   16989       1
   16968   16986   16974   16992       1   16965   16956   16959   16971       1
   16965   16980   16995   17013       1   16965   16983   17004   17022       1
   16962   16956   16959   16971       1   16962   16974   16986   17010       1
   16962   16977   16995   17013       1   16959   16968   16986   17010       1
   16956   16959   16968   16989       1   16956   16962   16974   16992       1
   16956   16962   16977   16998       1   16956   16965   16983   17007       1
   17166   17154   17160   17169       1   17163   17151   17160   17169       1
   17157   17145   17154   17160       1   17157   17145   17154   17166       1
   17154   17160   17151   17163       1   17151   17160   17154   17166       1
   17148   17136   17142   17151       1   17145   17154   17160   17169       1
   17142   17133   17145   17157       1   17142   17151   17160   17169       1
   17139   17127   17136   17142       1   17139   17127   17136   17148       1
   17136   17142   17151   17163       1   17133   17142   17136   17148       1
   17133   17142   17151   17163       1   17133   17145   17154   17166       1
   17130   17112   17124   17133       1   17124   17109   17127   17139       1
   17124   17133   17145   17157       1   17115   17091   17112   17124       1
   17115   17091   17112   17130       1   17109   17088   17103   17121       1
   17109   17124   17112   17130       1   17109   17127   17136   17148       1
   17106   17085   17103   17121       1   17100   17082   17094   17118       1
   17097   17076   17094   17118       1   17088   17073   17091   17115       1
   17088   17103   17085   17106       1   17088   17109   17127   17139       1
   17085   17070   17082   17100       1   17082   17070   17085   17106       1
   17082   17094   17076   17097       1   17079   17067   17076   17094       1
   17079   17067   17076   17097       1   17076   17094   17082   17100       1
   17073   17064   17067   17079       1   17073   17088   17103   17121       1
   17073   17091   17112   17130       1   17070   17064   17067   17079       1
   17070   17082   17094   17118       1   17070   17085   17103   17121       1
   17067   17076   17094   17118       1   17064   17067   17076   17097       1
   17064   17070   17082   17100       1   17064   17070   17085   17106       1
   17064   17073   17091   17115       1   17274   17262   17268   17277       1
   17271   17259   17268   17277       1   17265   17253   17262   17268       1
   17265   17253   17262   17274       1   17262   17268   17259   17271       1
   17259   17268   17262   17274       1   17256   17244   17250   17259       1
   17253   17262   17268   17277       1   17250   17241   17253   17265       1
   17250   17259   17268   17277       1   17247   17235   17244   17250       1
   17247   17235   17244   17256       1   17244   17250   17259   17271       1
   17241   17250   17244   17256       1   17241   17250   17259   17271       1
   17241   17253   17262   17274       1   17238   17220   17232   17241       1
   17232   17217   17235   17247       1   17232   17241   17253   17265       1
   17223   17199   17220   17232       1   17223   17199   17220   17238       1
   17217   17196   17211   17229       1   17217   17232   17220   17238       1
   17217   17235   17244   17256       1   17214   17193   17211   17229       1
   17208   17190   17202   17226       1   17205   17184   17202   17226       1
   17196   17181   17199   17223       1   17196   17211   17193   17214       1
   17196   17217   17235   17247       1   17193   17178   17190   17208       1
   17190   17178   17193   17214       1   17190   17202   17184   17205       1
   17187   17175   17184   17202       1   17187   17175   17184   17205       1
   17184   17202   17190   17208       1   17181   17172   17175   17187       1
   17181   17196   17211   17229       1   17181   17199   17220   17238       1
   17178   17172   17175   17187       1   17178   17190   17202   17226       1
   17178   17193   17211   17229       1   17175   17184   17202   17226       1
   17172   17175   17184   17205       1   17172   17178   17190   17208       1
   17172   17178   17193   17214       1   17172   17181   17199   17223       1
   17382   17370   17376   17385       1   17379   17367   17376   17385       1
   17373   17361   17370   17376       1   17373   17361   17370   17382       1
   17370   17376   17367   17379       1   17367   17376   17370   17382       1
   17364   17352   17358   17367       1   17361   17370   17376   17385       1
   17358   17349   17361   17373       1   17358   17367   17376   17385       1
   17355   17343   17352   17358       1   17355   17343   17352   17364       1
   17352   17358   17367   17379       1   17349   17358   17352   17364       1
   17349   17358   17367   17379       1   17349   17361   17370   17382       1
   17346   17328   17340   17349       1   17340   17325   17343   17355       1
   17340   17349   17361   17373       1   17331   17307   17328   17340       1
   17331   17307   17328   17346       1   17325   17304   17319   17337       1
   17325   17340   17328   17346       1   17325   17343   17352   17364       1
   17322   17301   17319   17337       1   17316   17298   17310   17334       1
   17313   17292   17310   17334       1   17304   17289   17307   17331       1
   17304   17319   17301   17322       1   17304   17325   17343   17355       1
   17301   17286   17298   17316       1   17298   17286   17301   17322       1
   17298   17310   17292   17313       1   17295   17283   17292   17310       1
   17295   17283   17292   17313       1   17292   17310   17298   17316       1
   17289   17280   17283   17295       1   17289   17304   17319   17337       1
   17289   17307   17328   17346       1   17286   17280   17283   17295       1
   17286   17298   17310   17334       1   17286   17301   17319   17337       1
   17283   17292   17310   17334       1   17280   17283   17292   17313       1
   17280   17286   17298   17316       1   17280   17286   17301   17322       1
   17280   17289   17307   17331       1   17490   17478   17484   17493       1
   17487   17475   17484   17493       1   17481   17469   17478   17484       1
   17481   17469   17478   17490       1   17478   17484   17475   17487       1
   17475   17484   17478   17490       1   17472   17460   17466   17475       1
   17469   17478   17484   17493       1   17466   17457   17469   17481       1
   17466   17475   17484   17493       1   17463   17451   17460   17466       1
   17463   17451   17460   17472       1   17460   17466   17475   17487       1
   17457   17466   17460   17472       1   17457   17466   17475   17487       1
   17457   17469   17478   17490       1   17454   17436   17448   17457       1
   17448   17433   17451   17463       1   17448   17457   17469   17481       1
   17439   17415   17436   17448       1   17439   17415   17436   17454       1
   17433   17412   17427   17445       1   17433   17448   17436   17454       1
   17433   17451   17460   17472       1   17430   17409   17427   17445       1
   17424   17406   17418   17442       1   17421   17400   17418   17442       1
   17412   17397   17415   17439       1   17412   17427   17409   17430       1
   17412   17433   17451   17463       1   17409   17394   17406   17424       1
   17406   17394   17409   17430       1   17406   17418   17400   17421       1
   17403   17391   17400   17418       1   17403   17391   17400   17421       1
   17400   17418   17406   17424       1   17397   17388   17391   17403       1
   17397   17412   17427   17445       1   17397   17415   17436   17454       1
   17394   17388   17391   17403       1   17394   17406   17418   17442       1
   17394   17409   17427   17445       1   17391   17400   17418   17442       1
   17388   17391   17400   17421       1   17388   17394   17406   17424       1
   17388   17394   17409   17430       1   17388   17397   17415   17439       1
   17598   17586   17592   17601       1   17595   17583   17592   17601       1
   17589   17577   17586   17592       1   17589   17577   17586   17598       1
   17586   17592   17583   17595       1   17583   17592   17586   17598       1
   17580   17568   17574   17583       1   17577   17586   17592   17601       1
   17574   17565   17577   17589       1   17574   17583   17592   17601       1
   17571   17559   17568   17574       1   17571   17559   17568   17580       1
   17568   17574   17583   17595       1   17565   17574   17568   17580       1
   17565   17574   17583   17595       1   17565   17577   17586   17598       1
   17562   17544   17556   17565       1   17556   17541   17559   17571       1
   17556   17565   17577   17589       1   17547   17523   17544   17556       1
   17547   17523   17544   17562       1   17541   17520   17535   17553       1
   17541   17556   17544   17562       1   17541   17559   17568   17580       1
   17538   17517   17535   17553       1   17532   17514   17526   17550       1
   17529   17508   17526   17550       1   17520   17505   17523   17547       1
   17520   17535   17517   17538       1   17520   17541   17559   17571       1
   17517   17502   17514   17532       1   17514   17502   17517   17538       1
   17514   17526   17508   17529       1   17511   17499   17508   17526       1
   17511   17499   17508   17529       1   17508   17526   17514   17532       1
   17505   17496   17499   17511       1   17505   17520   17535   17553       1
   17505   17523   17544   17562       1   17502   17496   17499   17511       1
   17502   17514   17526   17550       1   17502   17517   17535   17553       1
   17499   17508   17526   17550       1   17496   17499   17508   17529       1
   17496   17502   17514   17532       1   17496   17502   17517   17538       1
   17496   17505   17523   17547       1   17706   17694   17700   17709       1
   17703   17691   17700   17709       1   17697   17685   17694   17700       1
   17697   17685   17694   17706       1   17694   17700   17691   17703       1
   17691   17700   17694   17706       1   17688   17676   17682   17691       1
   17685   17694   17700   17709       1   17682   17673   17685   17697       1
   17682   17691   17700   17709       1   17679   17667   17676   17682       1
   17679   17667   17676   17688       1   17676   17682   17691   17703       1
   17673   17682   17676   17688       1   17673   17682   17691   17703       1
   17673   17685   17694   17706       1   17670   17652   17664   17673       1
   17664   17649   17667   17679       1   17664   17673   17685   17697       1
   17655   17631   17652   17664       1   17655   17631   17652   17670       1
   17649   17628   17643   17661       1   17649   17664   17652   17670       1
   17649   17667   17676   17688       1   17646   17625   17643   17661       1
   17640   17622   17634   17658       1   17637   17616   17634   17658       1
   17628   17613   17631   17655       1   17628   17643   17625   17646       1
   17628   17649   17667   17679       1   17625   17610   17622   17640       1
   17622   17610   17625   17646       1   17622   17634   17616   17637       1
   17619   17607   17616   17634       1   17619   17607   17616   17637       1
   17616   17634   17622   17640       1   17613   17604   17607   17619       1
   17613   17628   17643   17661       1   17613   17631   17652   17670       1
   17610   17604   17607   17619       1   17610   17622   17634   17658       1
   17610   17625   17643   17661       1   17607   17616   17634   17658       1
   17604   17607   17616   17637       1   17604   17610   17622   17640       1
   17604   17610   17625   17646       1   17604   17613   17631   17655       1
   17814   17802   17808   17817       1   17811   17799   17808   17817       1
   17805   17793   17802   17808       1   17805   17793   17802   17814       1
   17802   17808   17799   17811       1   17799   17808   17802   17814       1
   17796   17784   17790   17799       1   17793   17802   17808   17817       1
   17790   17781   17793   17805       1   17790   17799   17808   17817       1
   17787   17775   17784   17790       1   17787   17775   17784   17796       1
   17784   17790   17799   17811       1   17781   17790   17784   17796       1
   17781   17790   17799   17811       1   17781   17793   17802   17814       1
   17778   17760   17772   17781       1   17772   17757   17775   17787       1
   17772   17781   17793   17805       1   17763   17739   17760   17772       1
   17763   17739   17760   17778       1   17757   17736   17751   17769       1
   17757   17772   17760   17778       1   17757   17775   17784   17796       1
   17754   17733   17751   17769       1   17748   17730   17742   17766       1
   17745   17724   17742   17766       1   17736   17721   17739   17763       1
   17736   17751   17733   17754       1   17736   17757   17775   17787       1
   17733   17718   17730   17748       1   17730   17718   17733   17754       1
   17730   17742   17724   17745       1   17727   17715   17724   17742       1
   17727   17715   17724   17745       1   17724   17742   17730   17748       1
   17721   17712   17715   17727       1   17721   17736   17751   17769       1
   17721   17739   17760   17778       1   17718   17712   17715   17727       1
   17718   17730   17742   17766       1   17718   17733   17751   17769       1
   17715   17724   17742   17766       1   17712   17715   17724   17745       1
   17712   17718   17730   17748       1   17712   17718   17733   17754       1
   17712   17721   17739   17763       1   17922   17910   17916   17925       1
   17919   17907   17916   17925       1   17913   17901   17910   17916       1
   17913   17901   17910   17922       1   17910   17916   17907   17919       1
   17907   17916   17910   17922       1   17904   17892   17898   17907       1
   17901   17910   17916   17925       1   17898   17889   17901   17913       1
   17898   17907   17916   17925       1   17895   17883   17892   17898       1
   17895   17883   17892   17904       1   17892   17898   17907   17919       1
   17889   17898   17892   17904       1   17889   17898   17907   17919       1
   17889   17901   17910   17922       1   17886   17868   17880   17889       1
   17880   17865   17883   17895       1   17880   17889   17901   17913       1
   17871   17847   17868   17880       1   17871   17847   17868   17886       1
   17865   17844   17859   17877       1   17865   17880   17868   17886       1
   17865   17883   17892   17904       1   17862   17841   17859   17877       1
   17856   17838   17850   17874       1   17853   17832   17850   17874       1
   17844   17829   17847   17871       1   17844   17859   17841   17862       1
   17844   17865   17883   17895       1   17841   17826   17838   17856       1
   17838   17826   17841   17862       1   17838   17850   17832   17853       1
   17835   17823   17832   17850       1   17835   17823   17832   17853       1
   17832   17850   17838   17856       1   17829   17820   17823   17835       1
   17829   17844   17859   17877       1   17829   17847   17868   17886       1
   17826   17820   17823   17835       1   17826   17838   17850   17874       1
   17826   17841   17859   17877       1   17823   17832   17850   17874       1
   17820   17823   17832   17853       1   17820   17826   17838   17856       1
   17820   17826   17841   17862       1   17820   17829   17847   17871       1
   18030   18018   18024   18033       1   18027   18015   18024   18033       1
   18021   18009   18018   18024       1   18021   18009   18018   18030       1
   18018   18024   18015   18027       1   18015   18024   18018   18030       1
   18012   18000   18006   18015       1   18009   18018   18024   18033       1
   18006   17997   18009   18021       1   18006   18015   18024   18033       1
   18003   17991   18000   18006       1   18003   17991   18000   18012       1
   18000   18006   18015   18027       1   17997   18006   18000   18012       1
   17997   18006   18015   18027       1   17997   18009   18018   18030       1
   17994   17976   17988   17997       1   17988   17973   17991   18003       1
   17988   17997   18009   18021       1   17979   17955   17976   17988       1
   17979   17955   17976   17994       1   17973   17952   17967   17985       1
   17973   17988   17976   17994       1   17973   17991   18000   18012       1
   17970   17949   17967   17985       1   17964   17946   17958   17982       1
   17961   17940   17958   17982       1   17952   17937   17955   17979       1
   17952   17967   17949   17970       1   17952   17973   17991   18003       1
   17949   17934   17946   17964       1   17946   17934   17949   17970       1
   17946   17958   17940   17961       1   17943   17931   17940   17958       1
   17943   17931   17940   17961       1   17940   17958   17946   17964       1
   17937   17928   17931   17943       1   17937   17952   17967   17985       1
   17937   17955   17976   17994       1   17934   17928   17931   17943       1
   17934   17946   17958   17982       1   17934   17949   17967   17985       1
   17931   17940   17958   17982       1   17928   17931   17940   17961       1
   17928   17934   17946   17964       1   17928   17934   17949   17970       1
   17928   17937   17955   17979       1   18138   18126   18132   18141       1
   18135   18123   18132   18141       1   18129   18117   18126   18132       1
   18129   18117   18126   18138       1   18126   18132   18123   18135       1
   18123   18132   18126   18138       1   18120   18108   18114   18123       1
   18117   18126   18132   18141       1   18114   18105   18117   18129       1
   18114   18123   18132   18141       1   18111   18099   18108   18114       1
   18111   18099   18108   18120       1   18108   18114   18123   18135       1
   18105   18114   18108   18120       1   18105   18114   18123   18135       1
   18105   18117   18126   18138       1   18102   18084   18096   18105       1
   18096   18081   18099   18111       1   18096   18105   18117   18129       1
   18087   18063   18084   18096       1   18087   18063   18084   18102       1
   18081   18060   18075   18093       1   18081   18096   18084   18102       1
   18081   18099   18108   18120       1   18078   18057   18075   18093       1
   18072   18054   18066   18090       1   18069   18048   18066   18090       1
   18060   18045   18063   18087       1   18060   18075   18057   18078       1
   18060   18081   18099   18111       1   18057   18042   18054   18072       1
   18054   18042   18057   18078       1   18054   18066   18048   18069       1
   18051   18039   18048   18066       1   18051   18039   18048   18069       1
   18048   18066   18054   18072       1   18045   18036   18039   18051       1
   18045   18060   18075   18093       1   18045   18063   18084   18102       1
   18042   18036   18039   18051       1   18042   18054   18066   18090       1
   18042   18057   18075   18093       1   18039   18048   18066   18090       1
   18036   18039   18048   18069       1   18036   18042   18054   18072       1
   18036   18042   18057   18078       1   18036   18045   18063   18087       1
   18246   18234   18240   18249       1   18243   18231   18240   18249       1
   18237   18225   18234   18240       1   18237   18225   18234   18246       1
   18234   18240   18231   18243       1   18231   18240   18234   18246       1
   18228   18216   18222   18231       1   18225   18234   18240   18249       1
   18222   18213   18225   18237       1   18222   18231   18240   18249       1
   18219   18207   18216   18222       1   18219   18207   18216   18228       1
   18216   18222   18231   18243       1   18213   18222   18216   18228       1
   18213   18222   18231   18243       1   18213   18225   18234   18246       1
   18210   18192   18204   18213       1   18204   18189   18207   18219       1
   18204   18213   18225   18237       1   18195   18171   18192   18204       1
   18195   18171   18192   18210       1   18189   18168   18183   18201       1
   18189   18204   18192   18210       1   18189   18207   18216   18228       1
   18186   18165   18183   18201       1   18180   18162   18174   18198       1
   18177   18156   18174   18198       1   18168   18153   18171   18195       1
   18168   18183   18165   18186       1   18168   18189   18207   18219       1
   18165   18150   18162   18180       1   18162   18150   18165   18186       1
   18162   18174   18156   18177       1   18159   18147   18156   18174       1
   18159   18147   18156   18177       1   18156   18174   18162   18180       1
   18153   18144   18147   18159       1   18153   18168   18183   18201       1
   18153   18171   18192   18210       1   18150   18144   18147   18159       1
   18150   18162   18174   18198       1   18150   18165   18183   18201       1
   18147   18156   18174   18198       1   18144   18147   18156   18177       1
   18144   18150   18162   18180       1   18144   18150   18165   18186       1
   18144   18153   18171   18195       1   18354   18342   18348   18357       1
   18351   18339   18348   18357       1   18345   18333   18342   18348       1
   18345   18333   18342   18354       1   18342   18348   18339   18351       1
   18339   18348   18342   18354       1   18336   18324   18330   18339       1
   18333   18342   18348   18357       1   18330   18321   18333   18345       1
   18330   18339   18348   18357       1   18327   18315   18324   18330       1
   18327   18315   18324   18336       1   18324   18330   18339   18351       1
   18321   18330   18324   18336       1   18321   18330   18339   18351       1
   18321   18333   18342   18354       1   18318   18300   18312   18321       1
   18312   18297   18315   18327       1   18312   18321   18333   18345       1
   18303   18279   18300   18312       1   18303   18279   18300   18318       1
   18297   18276   18291   18309       1   18297   18312   18300   18318       1
   18297   18315   18324   18336       1   18294   18273   18291   18309       1
   18288   18270   18282   18306       1   18285   18264   18282   18306       1
   18276   18261   18279   18303       1   18276   18291   18273   18294       1
   18276   18297   18315   18327       1   18273   18258   18270   18288       1
   18270   18258   18273   18294       1   18270   18282   18264   18285       1
   18267   18255   18264   18282       1   18267   18255   18264   18285       1
   18264   18282   18270   18288       1   18261   18252   18255   18267       1
   18261   18276   18291   18309       1   18261   18279   18300   18318       1
   18258   18252   18255   18267       1   18258   18270   18282   18306       1
   18258   18273   18291   18309       1   18255   18264   18282   18306       1
   18252   18255   18264   18285       1   18252   18258   18270   18288       1
   18252   18258   18273   18294       1   18252   18261   18279   18303       1
   18462   18450   18456   18465       1   18459   18447   18456   18465       1
   18453   18441   18450   18456       1   18453   18441   18450   18462       1
   18450   18456   18447   18459       1   18447   18456   18450   18462       1
   18444   18432   18438   18447       1   18441   18450   18456   18465       1
   18438   18429   18441   18453       1   18438   18447   18456   18465       1
   18435   18423   18432   18438       1   18435   18423   18432   18444       1
   18432   18438   18447   18459       1   18429   18438   18432   18444       1
   18429   18438   18447   18459       1   18429   18441   18450   18462       1
   18426   18408   18420   18429       1   18420   18405   18423   18435       1
   18420   18429   18441   18453       1   18411   18387   18408   18420       1
   18411   18387   18408   18426       1   18405   18384   18399   18417       1
   18405   18420   18408   18426       1   18405   18423   18432   18444       1
   18402   18381   18399   18417       1   18396   18378   18390   18414       1
   18393   18372   18390   18414       1   18384   18369   18387   18411       1
   18384   18399   18381   18402       1   18384   18405   18423   18435       1
   18381   18366   18378   18396       1   18378   18366   18381   18402       1
   18378   18390   18372   18393       1   18375   18363   18372   18390       1
   18375   18363   18372   18393       1   18372   18390   18378   18396       1
   18369   18360   18363   18375       1   18369   18384   18399   18417       1
   18369   18387   18408   18426       1   18366   18360   18363   18375       1
   18366   18378   18390   18414       1   18366   18381   18399   18417       1
   18363   18372   18390   18414       1   18360   18363   18372   18393       1
   18360   18366   18378   18396       1   18360   18366   18381   18402       1
   18360   18369   18387   18411       1   18570   18558   18564   18573       1
   18567   18555   18564   18573       1   18561   18549   18558   18564       1
   18561   18549   18558   18570       1   18558   18564   18555   18567       1
   18555   18564   18558   18570       1   18552   18540   18546   18555       1
   18549   18558   18564   18573       1   18546   18537   18549   18561       1
   18546   18555   18564   18573       1   18543   18531   18540   18546       1
   18543   18531   18540   18552       1   18540   18546   18555   18567       1
   18537   18546   18540   18552       1   18537   18546   18555   18567       1
   18537   18549   18558   18570       1   18534   18516   18528   18537       1
   18528   18513   18531   18543       1   18528   18537   18549   18561       1
   18519   18495   18516   18528       1   18519   18495   18516   18534       1
   18513   18492   18507   18525       1   18513   18528   18516   18534       1
   18513   18531   18540   18552       1   18510   18489   18507   18525       1
   18504   18486   18498   18522       1   18501   18480   18498   18522       1
   18492   18477   18495   18519       1   18492   18507   18489   18510       1
   18492   18513   18531   18543       1   18489   18474   18486   18504       1
   18486   18474   18489   18510       1   18486   18498   18480   18501       1
   18483   18471   18480   18498       1   18483   18471   18480   18501       1
   18480   18498   18486   18504       1   18477   18468   18471   18483       1
   18477   18492   18507   18525       1   18477   18495   18516   18534       1
   18474   18468   18471   18483       1   18474   18486   18498   18522       1
   18474   18489   18507   18525       1   18471   18480   18498   18522       1
   18468   18471   18480   18501       1   18468   18474   18486   18504       1
   18468   18474   18489   18510       1   18468   18477   18495   18519       1
   18678   18666   18672   18681       1   18675   18663   18672   18681       1
   18669   18657   18666   18672       1   18669   18657   18666   18678       1
   18666   18672   18663   18675       1   18663   18672   18666   18678       1
   18660   18648   18654   18663       1   18657   18666   18672   18681       1
   18654   18645   18657   18669       1   18654   18663   18672   18681       1
   18651   18639   18648   18654       1   18651   18639   18648   18660       1
   18648   18654   18663   18675       1   18645   18654   18648   18660       1
   18645   18654   18663   18675       1   18645   18657   18666   18678       1
   18642   18624   18636   18645       1   18636   18621   18639   18651       1
   18636   18645   18657   18669       1   18627   18603   18624   18636       1
   18627   18603   18624   18642       1   18621   18600   18615   18633       1
   18621   18636   18624   18642       1   18621   18639   18648   18660       1
   18618   18597   18615   18633       1   18612   18594   18606   18630       1
   18609   18588   18606   18630       1   18600   18585   18603   18627       1
   18600   18615   18597   18618       1   18600   18621   18639   18651       1
   18597   18582   18594   18612       1   18594   18582   18597   18618       1
   18594   18606   18588   18609       1   18591   18579   18588   18606       1
   18591   18579   18588   18609       1   18588   18606   18594   18612       1
   18585   18576   18579   18591       1   18585   18600   18615   18633       1
   18585   18603   18624   18642       1   18582   18576   18579   18591       1
   18582   18594   18606   18630       1   18582   18597   18615   18633       1
   18579   18588   18606   18630       1   18576   18579   18588   18609       1
   18576   18582   18594   18612       1   18576   18582   18597   18618       1
   18576   18585   18603   18627       1   18786   18774   18780   18789       1
   18783   18771   18780   18789       1   18777   18765   18774   18780       1
   18777   18765   18774   18786       1   18774   18780   18771   18783       1
   18771   18780   18774   18786       1   18768   18756   18762   18771       1
   18765   18774   18780   18789       1   18762   18753   18765   18777       1
   18762   18771   18780   18789       1   18759   18747   18756   18762       1
   18759   18747   18756   18768       1   18756   18762   18771   18783       1
   18753   18762   18756   18768       1   18753   18762   18771   18783       1
   18753   18765   18774   18786       1   18750   18732   18744   18753       1
   18744   18729   18747   18759       1   18744   18753   18765   18777       1
   18735   18711   18732   18744       1   18735   18711   18732   18750       1
   18729   18708   18723   18741       1   18729   18744   18732   18750       1
   18729   18747   18756   18768       1   18726   18705   18723   18741       1
   18720   18702   18714   18738       1   18717   18696   18714   18738       1
   18708   18693   18711   18735       1   18708   18723   18705   18726       1
   18708   18729   18747   18759       1   18705   18690   18702   18720       1
   18702   18690   18705   18726       1   18702   18714   18696   18717       1
   18699   18687   18696   18714       1   18699   18687   18696   18717       1
   18696   18714   18702   18720       1   18693   18684   18687   18699       1
   18693   18708   18723   18741       1   18693   18711   18732   18750       1
   18690   18684   18687   18699       1   18690   18702   18714   18738       1
   18690   18705   18723   18741       1   18687   18696   18714   18738       1
   18684   18687   18696   18717       1   18684   18690   18702   18720       1
   18684   18690   18705   18726       1   18684   18693   18711   18735       1
   18894   18882   18888   18897       1   18891   18879   18888   18897       1
   18885   18873   18882   18888       1   18885   18873   18882   18894       1
   18882   18888   18879   18891       1   18879   18888   18882   18894       1
   18876   18864   18870   18879       1   18873   18882   18888   18897       1
   18870   18861   18873   18885       1   18870   18879   18888   18897       1
   18867   18855   18864   18870       1   18867   18855   18864   18876       1
   18864   18870   18879   18891       1   18861   18870   18864   18876       1
   18861   18870   18879   18891       1   18861   18873   18882   18894       1
   18858   18840   18852   18861       1   18852   18837   18855   18867       1
   18852   18861   18873   18885       1   18843   18819   18840   18852       1
   18843   18819   18840   18858       1   18837   18816   18831   18849       1
   18837   18852   18840   18858       1   18837   18855   18864   18876       1
   18834   18813   18831   18849       1   18828   18810   18822   18846       1
   18825   18804   18822   18846       1   18816   18801   18819   18843       1
   18816   18831   18813   18834       1   18816   18837   18855   18867       1
   18813   18798   18810   18828       1   18810   18798   18813   18834       1
   18810   18822   18804   18825       1   18807   18795   18804   18822       1
   18807   18795   18804   18825       1   18804   18822   18810   18828       1
   18801   18792   18795   18807       1   18801   18816   18831   18849       1
   18801   18819   18840   18858       1   18798   18792   18795   18807       1
   18798   18810   18822   18846       1   18798   18813   18831   18849       1
   18795   18804   18822   18846       1   18792   18795   18804   18825       1
   18792   18798   18810   18828       1   18792   18798   18813   18834       1
   18792   18801   18819   18843       1   19002   18990   18996   19005       1
   18999   18987   18996   19005       1   18993   18981   18990   18996       1
   18993   18981   18990   19002       1   18990   18996   18987   18999       1
   18987   18996   18990   19002       1   18984   18972   18978   18987       1
   18981   18990   18996   19005       1   18978   18969   18981   18993       1
   18978   18987   18996   19005       1   18975   18963   18972   18978       1
   18975   18963   18972   18984       1   18972   18978   18987   18999       1
   18969   18978   18972   18984       1   18969   18978   18987   18999       1
   18969   18981   18990   19002       1   18966   18948   18960   18969       1
   18960   18945   18963   18975       1   18960   18969   18981   18993       1
   18951   18927   18948   18960       1   18951   18927   18948   18966       1
   18945   18924   18939   18957       1   18945   18960   18948   18966       1
   18945   18963   18972   18984       1   18942   18921   18939   18957       1
   18936   18918   18930   18954       1   18933   18912   18930   18954       1
   18924   18909   18927   18951       1   18924   18939   18921   18942       1
   18924   18945   18963   18975       1   18921   18906   18918   18936       1
   18918   18906   18921   18942       1   18918   18930   18912   18933       1
   18915   18903   18912   18930       1   18915   18903   18912   18933       1
   18912   18930   18918   18936       1   18909   18900   18903   18915       1
   18909   18924   18939   18957       1   18909   18927   18948   18966       1
   18906   18900   18903   18915       1   18906   18918   18930   18954       1
   18906   18921   18939   18957       1   18903   18912   18930   18954       1
   18900   18903   18912   18933       1   18900   18906   18918   18936       1
   18900   18906   18921   18942       1   18900   18909   18927   18951       1
   19110   19098   19104   19113       1   19107   19095   19104   19113       1
   19101   19089   19098   19104       1   19101   19089   19098   19110       1
   19098   19104   19095   19107       1   19095   19104   19098   19110       1
   19092   19080   19086   19095       1   19089   19098   19104   19113       1
   19086   19077   19089   19101       1   19086   19095   19104   19113       1
   19083   19071   19080   19086       1   19083   19071   19080   19092       1
   19080   19086   19095   19107       1   19077   19086   19080   19092       1
   19077   19086   19095   19107       1   19077   19089   19098   19110       1
   19074   19056   19068   19077       1   19068   19053   19071   19083       1
   19068   19077   19089   19101       1   19059   19035   19056   19068       1
   19059   19035   19056   19074       1   19053   19032   19047   19065       1
   19053   19068   19056   19074       1   19053   19071   19080   19092       1
   19050   19029   19047   19065       1   19044   19026   19038   19062       1
   19041   19020   19038   19062       1   19032   19017   19035   19059       1
   19032   19047   19029   19050       1   19032   19053   19071   19083       1
   19029   19014   19026   19044       1   19026   19014   19029   19050       1
   19026   19038   19020   19041       1   19023   19011   19020   19038       1
   19023   19011   19020   19041       1   19020   19038   19026   19044       1
   19017   19008   19011   19023       1   19017   19032   19047   19065       1
   19017   19035   19056   19074       1   19014   19008   19011   19023       1
   19014   19026   19038   19062       1   19014   19029   19047   19065       1
   19011   19020   19038   19062       1   19008   19011   19020   19041       1
   19008   19014   19026   19044       1   19008   19014   19029   19050       1
   19008   19017   19035   19059       1   19218   19206   19212   19221       1
   19215   19203   19212   19221       1   19209   19197   19206   19212       1
   19209   19197   19206   19218       1   19206   19212   19203   19215       1
   19203   19212   19206   19218       1   19200   19188   19194   19203       1
   19197   19206   19212   19221       1   19194   19185   19197   19209       1
   19194   19203   19212   19221       1   19191   19179   19188   19194       1
   19191   19179   19188   19200       1   19188   19194   19203   19215       1
   19185   19194   19188   19200       1   19185   19194   19203   19215       1
   19185   19197   19206   19218       1   19182   19164   19176   19185       1
   19176   19161   19179   19191       1   19176   19185   19197   19209       1
   19167   19143   19164   19176       1   19167   19143   19164   19182       1
   19161   19140   19155   19173       1   19161   19176   19164   19182       1
   19161   19179   19188   19200       1   19158   19137   19155   19173       1
   19152   19134   19146   19170       1   19149   19128   19146   19170       1
   19140   19125   19143   19167       1   19140   19155   19137   19158       1
   19140   19161   19179   19191       1   19137   19122   19134   19152       1
   19134   19122   19137   19158       1   19134   19146   19128   19149       1
   19131   19119   19128   19146       1   19131   19119   19128   19149       1
   19128   19146   19134   19152       1   19125   19116   19119   19131       1
   19125   19140   19155   19173       1   19125   19143   19164   19182       1
   19122   19116   19119   19131       1   19122   19134   19146   19170       1
   19122   19137   19155   19173       1   19119   19128   19146   19170       1
   19116   19119   19128   19149       1   19116   19122   19134   19152       1
   19116   19122   19137   19158       1   19116   19125   19143   19167       1
   19326   19314   19320   19329       1   19323   19311   19320   19329       1
   19317   19305   19314   19320       1   19317   19305   19314   19326       1
   19314   19320   19311   19323       1   19311   19320   19314   19326       1
   19308   19296   19302   19311       1   19305   19314   19320   19329       1
   19302   19293   19305   19317       1   19302   19311   19320   19329       1
   19299   19287   19296   19302       1   19299   19287   19296   19308       1
   19296   19302   19311   19323       1   19293   19302   19296   19308       1
   19293   19302   19311   19323       1   19293   19305   19314   19326       1
   19290   19272   19284   19293       1   19284   19269   19287   19299       1
   19284   19293   19305   19317       1   19275   19251   19272   19284       1
   19275   19251   19272   19290       1   19269   19248   19263   19281       1
   19269   19284   19272   19290       1   19269   19287   19296   19308       1
   19266   19245   19263   19281       1   19260   19242   19254   19278       1
   19257   19236   19254   19278       1   19248   19233   19251   19275       1
   19248   19263   19245   19266       1   19248   19269   19287   19299       1
   19245   19230   19242   19260       1   19242   19230   19245   19266       1
   19242   19254   19236   19257       1   19239   19227   19236   19254       1
   19239   19227   19236   19257       1   19236   19254   19242   19260       1
   19233   19224   19227   19239       1   19233   19248   19263   19281       1
   19233   19251   19272   19290       1   19230   19224   19227   19239       1
   19230   19242   19254   19278       1   19230   19245   19263   19281       1
   19227   19236   19254   19278       1   19224   19227   19236   19257       1
   19224   19230   19242   19260       1   19224   19230   19245   19266       1
   19224   19233   19251   19275       1   19434   19422   19428   19437       1
   19431   19419   19428   19437       1   19425   19413   19422   19428       1
   19425   19413   19422   19434       1   19422   19428   19419   19431       1
   19419   19428   19422   19434       1   19416   19404   19410   19419       1
   19413   19422   19428   19437       1   19410   19401   19413   19425       1
   19410   19419   19428   19437       1   19407   19395   19404   19410       1
   19407   19395   19404   19416       1   19404   19410   19419   19431       1
   19401   19410   19404   19416       1   19401   19410   19419   19431       1
   19401   19413   19422   19434       1   19398   19380   19392   19401       1
   19392   19377   19395   19407       1   19392   19401   19413   19425       1
   19383   19359   19380   19392       1   19383   19359   19380   19398       1
   19377   19356   19371   19389       1   19377   19392   19380   19398       1
   19377   19395   19404   19416       1   19374   19353   19371   19389       1
   19368   19350   19362   19386       1   19365   19344   19362   19386       1
   19356   19341   19359   19383       1   19356   19371   19353   19374       1
   19356   19377   19395   19407       1   19353   19338   19350   19368       1
   19350   19338   19353   19374       1   19350   19362   19344   19365       1
   19347   19335   19344   19362       1   19347   19335   19344   19365       1
   19344   19362   19350   19368       1   19341   19332   19335   19347       1
   19341   19356   19371   19389       1   19341   19359   19380   19398       1
   19338   19332   19335   19347       1   19338   19350   19362   19386       1
   19338   19353   19371   19389       1   19335   19344   19362   19386       1
   19332   19335   19344   19365       1   19332   19338   19350   19368       1
   19332   19338   19353   19374       1   19332   19341   19359   19383       1
   19542   19530   19536   19545       1   19539   19527   19536   19545       1
   19533   19521   19530   19536       1   19533   19521   19530   19542       1
   19530   19536   19527   19539       1   19527   19536   19530   19542       1
   19524   19512   19518   19527       1   19521   19530   19536   19545       1
   19518   19509   19521   19533       1   19518   19527   19536   19545       1
   19515   19503   19512   19518       1   19515   19503   19512   19524       1
   19512   19518   19527   19539       1   19509   19518   19512   19524       1
   19509   19518   19527   19539       1   19509   19521   19530   19542       1
   19506   19488   19500   19509       1   19500   19485   19503   19515       1
   19500   19509   19521   19533       1   19491   19467   19488   19500       1
   19491   19467   19488   19506       1   19485   19464   19479   19497       1
   19485   19500   19488   19506       1   19485   19503   19512   19524       1
   19482   19461   19479   19497       1   19476   19458   19470   19494       1
   19473   19452   19470   19494       1   19464   19449   19467   19491       1
   19464   19479   19461   19482       1   19464   19485   19503   19515       1
   19461   19446   19458   19476       1   19458   19446   19461   19482       1
   19458   19470   19452   19473       1   19455   19443   19452   19470       1
   19455   19443   19452   19473       1   19452   19470   19458   19476       1
   19449   19440   19443   19455       1   19449   19464   19479   19497       1
   19449   19467   19488   19506       1   19446   19440   19443   19455       1
   19446   19458   19470   19494       1   19446   19461   19479   19497       1
   19443   19452   19470   19494       1   19440   19443   19452   19473       1
   19440   19446   19458   19476       1   19440   19446   19461   19482       1
   19440   19449   19467   19491       1   19650   19638   19644   19653       1
   19647   19635   19644   19653       1   19641   19629   19638   19644       1
   19641   19629   19638   19650       1   19638   19644   19635   19647       1
   19635   19644   19638   19650       1   19632   19620   19626   19635       1
   19629   19638   19644   19653       1   19626   19617   19629   19641       1
   19626   19635   19644   19653       1   19623   19611   19620   19626       1
   19623   19611   19620   19632       1   19620   19626   19635   19647       1
   19617   19626   19620   19632       1   19617   19626   19635   19647       1
   19617   19629   19638   19650       1   19614   19596   19608   19617       1
   19608   19593   19611   19623       1   19608   19617   19629   19641       1
   19599   19575   19596   19608       1   19599   19575   19596   19614       1
   19593   19572   19587   19605       1   19593   19608   19596   19614       1
   19593   19611   19620   19632       1   19590   19569   19587   19605       1
   19584   19566   19578   19602       1   19581   19560   19578   19602       1
   19572   19557   19575   19599       1   19572   19587   19569   19590       1
   19572   19593   19611   19623       1   19569   19554   19566   19584       1
   19566   19554   19569   19590       1   19566   19578   19560   19581       1
   19563   19551   19560   19578       1   19563   19551   19560   19581       1
   19560   19578   19566   19584       1   19557   19548   19551   19563       1
   19557   19572   19587   19605       1   19557   19575   19596   19614       1
   19554   19548   19551   19563       1   19554   19566   19578   19602       1
   19554   19569   19587   19605       1   19551   19560   19578   19602       1
   19548   19551   19560   19581       1   19548   19554   19566   19584       1
   19548   19554   19569   19590       1   19548   19557   19575   19599       1
   19758   19746   19752   19761       1   19755   19743   19752   19761       1
   19749   19737   19746   19752       1   19749   19737   19746   19758       1
   19746   19752   19743   19755       1   19743   19752   19746   19758       1
   19740   19728   19734   19743       1   19737   19746   19752   19761       1
   19734   19725   19737   19749       1   19734   19743   19752   19761       1
   19731   19719   19728   19734       1   19731   19719   19728   19740       1
   19728   19734   19743   19755       1   19725   19734   19728   19740       1
   19725   19734   19743   19755       1   19725   19737   19746   19758       1
   19722   19704   19716   19725       1   19716   19701   19719   19731       1
   19716   19725   19737   19749       1   19707   19683   19704   19716       1
   19707   19683   19704   19722       1   19701   19680   19695   19713       1
   19701   19716   19704   19722       1   19701   19719   19728   19740       1
   19698   19677   19695   19713       1   19692   19674   19686   19710       1
   19689   19668   19686   19710       1   19680   19665   19683   19707       1
   19680   19695   19677   19698       1   19680   19701   19719   19731       1
   19677   19662   19674   19692       1   19674   19662   19677   19698       1
   19674   19686   19668   19689       1   19671   19659   19668   19686       1
   19671   19659   19668   19689       1   19668   19686   19674   19692       1
   19665   19656   19659   19671       1   19665   19680   19695   19713       1
   19665   19683   19704   19722       1   19662   19656   19659   19671       1
   19662   19674   19686   19710       1   19662   19677   19695   19713       1
   19659   19668   19686   19710       1   19656   19659   19668   19689       1
   19656   19662   19674   19692       1   19656   19662   19677   19698       1
   19656   19665   19683   19707       1   19866   19854   19860   19869       1
   19863   19851   19860   19869       1   19857   19845   19854   19860       1
   19857   19845   19854   19866       1   19854   19860   19851   19863       1
   19851   19860   19854   19866       1   19848   19836   19842   19851       1
   19845   19854   19860   19869       1   19842   19833   19845   19857       1
   19842   19851   19860   19869       1   19839   19827   19836   19842       1
   19839   19827   19836   19848       1   19836   19842   19851   19863       1
   19833   19842   19836   19848       1   19833   19842   19851   19863       1
   19833   19845   19854   19866       1   19830   19812   19824   19833       1
   19824   19809   19827   19839       1   19824   19833   19845   19857       1
   19815   19791   19812   19824       1   19815   19791   19812   19830       1
   19809   19788   19803   19821       1   19809   19824   19812   19830       1
   19809   19827   19836   19848       1   19806   19785   19803   19821       1
   19800   19782   19794   19818       1   19797   19776   19794   19818       1
   19788   19773   19791   19815       1   19788   19803   19785   19806       1
   19788   19809   19827   19839       1   19785   19770   19782   19800       1
   19782   19770   19785   19806       1   19782   19794   19776   19797       1
   19779   19767   19776   19794       1   19779   19767   19776   19797       1
   19776   19794   19782   19800       1   19773   19764   19767   19779       1
   19773   19788   19803   19821       1   19773   19791   19812   19830       1
   19770   19764   19767   19779       1   19770   19782   19794   19818       1
   19770   19785   19803   19821       1   19767   19776   19794   19818       1
   19764   19767   19776   19797       1   19764   19770   19782   19800       1
   19764   19770   19785   19806       1   19764   19773   19791   19815       1
   19974   19962   19968   19977       1   19971   19959   19968   19977       1
   19965   19953   19962   19968       1   19965   19953   19962   19974       1
   19962   19968   19959   19971       1   19959   19968   19962   19974       1
   19956   19944   19950   19959       1   19953   19962   19968   19977       1
   19950   19941   19953   19965       1   19950   19959   19968   19977       1
   19947   19935   19944   19950       1   19947   19935   19944   19956       1
   19944   19950   19959   19971       1   19941   19950   19944   19956       1
   19941   19950   19959   19971       1   19941   19953   19962   19974       1
   19938   19920   19932   19941       1   19932   19917   19935   19947       1
   19932   19941   19953   19965       1   19923   19899   19920   19932       1
   19923   19899   19920   19938       1   19917   19896   19911   19929       1
   19917   19932   19920   19938       1   19917   19935   19944   19956       1
   19914   19893   19911   19929       1   19908   19890   19902   19926       1
   19905   19884   19902   19926       1   19896   19881   19899   19923       1
   19896   19911   19893   19914       1   19896   19917   19935   19947       1
   19893   19878   19890   19908       1   19890   19878   19893   19914       1
   19890   19902   19884   19905       1   19887   19875   19884   19902       1
   19887   19875   19884   19905       1   19884   19902   19890   19908       1
   19881   19872   19875   19887       1   19881   19896   19911   19929       1
   19881   19899   19920   19938       1   19878   19872   19875   19887       1
   19878   19890   19902   19926       1   19878   19893   19911   19929       1
   19875   19884   19902   19926       1   19872   19875   19884   19905       1
   19872   19878   19890   19908       1   19872   19878   19893   19914       1
   19872   19881   19899   19923       1   20082   20070   20076   20085       1
   20079   20067   20076   20085       1   20073   20061   20070   20076       1
   20073   20061   20070   20082       1   20070   20076   20067   20079       1
   20067   20076   20070   20082       1   20064   20052   20058   20067       1
   20061   20070   20076   20085       1   20058   20049   20061   20073       1
   20058   20067   20076   20085       1   20055   20043   20052   20058       1
   20055   20043   20052   20064       1   20052   20058   20067   20079       1
   20049   20058   20052   20064       1   20049   20058   20067   20079       1
   20049   20061   20070   20082       1   20046   20028   20040   20049       1
   20040   20025   20043   20055       1   20040   20049   20061   20073       1
   20031   20007   20028   20040       1   20031   20007   20028   20046       1
   20025   20004   20019   20037       1   20025   20040   20028   20046       1
   20025   20043   20052   20064       1   20022   20001   20019   20037       1
   20016   19998   20010   20034       1   20013   19992   20010   20034       1
   20004   19989   20007   20031       1   20004   20019   20001   20022       1
   20004   20025   20043   20055       1   20001   19986   19998   20016       1
   19998   19986   20001   20022       1   19998   20010   19992   20013       1
   19995   19983   19992   20010       1   19995   19983   19992   20013       1
   19992   20010   19998   20016       1   19989   19980   19983   19995       1
   19989   20004   20019   20037       1   19989   20007   20028   20046       1
   19986   19980   19983   19995       1   19986   19998   20010   20034       1
   19986   20001   20019   20037       1   19983   19992   20010   20034       1
   19980   19983   19992   20013       1   19980   19986   19998   20016       1
   19980   19986   20001   20022       1   19980   19989   20007   20031       1
   20190   20178   20184   20193       1   20187   20175   20184   20193       1
   20181   20169   20178   20184       1   20181   20169   20178   20190       1
   20178   20184   20175   20187       1   20175   20184   20178   20190       1
   20172   20160   20166   20175       1   20169   20178   20184   20193       1
   20166   20157   20169   20181       1   20166   20175   20184   20193       1
   20163   20151   20160   20166       1   20163   20151   20160   20172       1
   20160   20166   20175   20187       1   20157   20166   20160   20172       1
   20157   20166   20175   20187       1   20157   20169   20178   20190       1
   20154   20136   20148   20157       1   20148   20133   20151   20163       1
   20148   20157   20169   20181       1   20139   20115   20136   20148       1
   20139   20115   20136   20154       1   20133   20112   20127   20145       1
   20133   20148   20136   20154       1   20133   20151   20160   20172       1
   20130   20109   20127   20145       1   20124   20106   20118   20142       1
   20121   20100   20118   20142       1   20112   20097   20115   20139       1
   20112   20127   20109   20130       1   20112   20133   20151   20163       1
   20109   20094   20106   20124       1   20106   20094   20109   20130       1
   20106   20118   20100   20121       1   20103   20091   20100   20118       1
   20103   20091   20100   20121       1   20100   20118   20106   20124       1
   20097   20088   20091   20103       1   20097   20112   20127   20145       1
   20097   20115   20136   20154       1   20094   20088   20091   20103       1
   20094   20106   20118   20142       1   20094   20109   20127   20145       1
   20091   20100   20118   20142       1   20088   20091   20100   20121       1
   20088   20094   20106   20124       1   20088   20094   20109   20130       1
   20088   20097   20115   20139       1   20298   20286   20292   20301       1
   20295   20283   20292   20301       1   20289   20277   20286   20292       1
   20289   20277   20286   20298       1   20286   20292   20283   20295       1
   20283   20292   20286   20298       1   20280   20268   20274   20283       1
   20277   20286   20292   20301       1   20274   20265   20277   20289       1
   20274   20283   20292   20301       1   20271   20259   20268   20274       1
   20271   20259   20268   20280       1   20268   20274   20283   20295       1
   20265   20274   20268   20280       1   20265   20274   20283   20295       1
   20265   20277   20286   20298       1   20262   20244   20256   20265       1
   20256   20241   20259   20271       1   20256   20265   20277   20289       1
   20247   20223   20244   20256       1   20247   20223   20244   20262       1
   20241   20220   20235   20253       1   20241   20256   20244   20262       1
   20241   20259   20268   20280       1   20238   20217   20235   20253       1
   20232   20214   20226   20250       1   20229   20208   20226   20250       1
   20220   20205   20223   20247       1   20220   20235   20217   20238       1
   20220   20241   20259   20271       1   20217   20202   20214   20232       1
   20214   20202   20217   20238       1   20214   20226   20208   20229       1
   20211   20199   20208   20226       1   20211   20199   20208   20229       1
   20208   20226   20214   20232       1   20205   20196   20199   20211       1
   20205   20220   20235   20253       1   20205   20223   20244   20262       1
   20202   20196   20199   20211       1   20202   20214   20226   20250       1
   20202   20217   20235   20253       1   20199   20208   20226   20250       1
   20196   20199   20208   20229       1   20196   20202   20214   20232       1
   20196   20202   20217   20238       1   20196   20205   20223   20247       1
   20406   20394   20400   20409       1   20403   20391   20400   20409       1
   20397   20385   20394   20400       1   20397   20385   20394   20406       1
   20394   20400   20391   20403       1   20391   20400   20394   20406       1
   20388   20376   20382   20391       1   20385   20394   20400   20409       1
   20382   20373   20385   20397       1   20382   20391   20400   20409       1
   20379   20367   20376   20382       1   20379   20367   20376   20388       1
   20376   20382   20391   20403       1   20373   20382   20376   20388       1
   20373   20382   20391   20403       1   20373   20385   20394   20406       1
   20370   20352   20364   20373       1   20364   20349   20367   20379       1
   20364   20373   20385   20397       1   20355   20331   20352   20364       1
   20355   20331   20352   20370       1   20349   20328   20343   20361       1
   20349   20364   20352   20370       1   20349   20367   20376   20388       1
   20346   20325   20343   20361       1   20340   20322   20334   20358       1
   20337   20316   20334   20358       1   20328   20313   20331   20355       1
   20328   20343   20325   20346       1   20328   20349   20367   20379       1
   20325   20310   20322   20340       1   20322   20310   20325   20346       1
   20322   20334   20316   20337       1   20319   20307   20316   20334       1
   20319   20307   20316   20337       1   20316   20334   20322   20340       1
   20313   20304   20307   20319       1   20313   20328   20343   20361       1
   20313   20331   20352   20370       1   20310   20304   20307   20319       1
   20310   20322   20334   20358       1   20310   20325   20343   20361       1
   20307   20316   20334   20358       1   20304   20307   20316   20337       1
   20304   20310   20322   20340       1   20304   20310   20325   20346       1
   20304   20313   20331   20355       1   20514   20502   20508   20517       1
   20511   20499   20508   20517       1   20505   20493   20502   20508       1
   20505   20493   20502   20514       1   20502   20508   20499   20511       1
   20499   20508   20502   20514       1   20496   20484   20490   20499       1
   20493   20502   20508   20517       1   20490   20481   20493   20505       1
   20490   20499   20508   20517       1   20487   20475   20484   20490       1
   20487   20475   20484   20496       1   20484   20490   20499   20511       1
   20481   20490   20484   20496       1   20481   20490   20499   20511       1
   20481   20493   20502   20514       1   20478   20460   20472   20481       1
   20472   20457   20475   20487       1   20472   20481   20493   20505       1
   20463   20439   20460   20472       1   20463   20439   20460   20478       1
   20457   20436   20451   20469       1   20457   20472   20460   20478       1
   20457   20475   20484   20496       1   20454   20433   20451   20469       1
   20448   20430   20442   20466       1   20445   20424   20442   20466       1
   20436   20421   20439   20463       1   20436   20451   20433   20454       1
   20436   20457   20475   20487       1   20433   20418   20430   20448       1
   20430   20418   20433   20454       1   20430   20442   20424   20445       1
   20427   20415   20424   20442       1   20427   20415   20424   20445       1
   20424   20442   20430   20448       1   20421   20412   20415   20427       1
   20421   20436   20451   20469       1   20421   20439   20460   20478       1
   20418   20412   20415   20427       1   20418   20430   20442   20466       1
   20418   20433   20451   20469       1   20415   20424   20442   20466       1
   20412   20415   20424   20445       1   20412   20418   20430   20448       1
   20412   20418   20433   20454       1   20412   20421   20439   20463       1
   20622   20610   20616   20625       1   20619   20607   20616   20625       1
   20613   20601   20610   20616       1   20613   20601   20610   20622       1
   20610   20616   20607   20619       1   20607   20616   20610   20622       1
   20604   20592   20598   20607       1   20601   20610   20616   20625       1
   20598   20589   20601   20613       1   20598   20607   20616   20625       1
   20595   20583   20592   20598       1   20595   20583   20592   20604       1
   20592   20598   20607   20619       1   20589   20598   20592   20604       1
   20589   20598   20607   20619       1   20589   20601   20610   20622       1
   20586   20568   20580   20589       1   20580   20565   20583   20595       1
   20580   20589   20601   20613       1   20571   20547   20568   20580       1
   20571   20547   20568   20586       1   20565   20544   20559   20577       1
   20565   20580   20568   20586       1   20565   20583   20592   20604       1
   20562   20541   20559   20577       1   20556   20538   20550   20574       1
   20553   20532   20550   20574       1   20544   20529   20547   20571       1
   20544   20559   20541   20562       1   20544   20565   20583   20595       1
   20541   20526   20538   20556       1   20538   20526   20541   20562       1
   20538   20550   20532   20553       1   20535   20523   20532   20550       1
   20535   20523   20532   20553       1   20532   20550   20538   20556       1
   20529   20520   20523   20535       1   20529   20544   20559   20577       1
   20529   20547   20568   20586       1   20526   20520   20523   20535       1
   20526   20538   20550   20574       1   20526   20541   20559   20577       1
   20523   20532   20550   20574       1   20520   20523   20532   20553       1
   20520   20526   20538   20556       1   20520   20526   20541   20562       1
   20520   20529   20547   20571       1   20730   20718   20724   20733       1
   20727   20715   20724   20733       1   20721   20709   20718   20724       1
   20721   20709   20718   20730       1   20718   20724   20715   20727       1
   20715   20724   20718   20730       1   20712   20700   20706   20715       1
   20709   20718   20724   20733       1   20706   20697   20709   20721       1
   20706   20715   20724   20733       1   20703   20691   20700   20706       1
   20703   20691   20700   20712       1   20700   20706   20715   20727       1
   20697   20706   20700   20712       1   20697   20706   20715   20727       1
   20697   20709   20718   20730       1   20694   20676   20688   20697       1
   20688   20673   20691   20703       1   20688   20697   20709   20721       1
   20679   20655   20676   20688       1   20679   20655   20676   20694       1
   20673   20652   20667   20685       1   20673   20688   20676   20694       1
   20673   20691   20700   20712       1   20670   20649   20667   20685       1
   20664   20646   20658   20682       1   20661   20640   20658   20682       1
   20652   20637   20655   20679       1   20652   20667   20649   20670       1
   20652   20673   20691   20703       1   20649   20634   20646   20664       1
   20646   20634   20649   20670       1   20646   20658   20640   20661       1
   20643   20631   20640   20658       1   20643   20631   20640   20661       1
   20640   20658   20646   20664       1   20637   20628   20631   20643       1
   20637   20652   20667   20685       1   20637   20655   20676   20694       1
   20634   20628   20631   20643       1   20634   20646   20658   20682       1
   20634   20649   20667   20685       1   20631   20640   20658   20682       1
   20628   20631   20640   20661       1   20628   20634   20646   20664       1
   20628   20634   20649   20670       1   20628   20637   20655   20679       1
   20838   20826   20832   20841       1   20835   20823   20832   20841       1
   20829   20817   20826   20832       1   20829   20817   20826   20838       1
   20826   20832   20823   20835       1   20823   20832   20826   20838       1
   20820   20808   20814   20823       1   20817   20826   20832   20841       1
   20814   20805   20817   20829       1   20814   20823   20832   20841       1
   20811   20799   20808   20814       1   20811   20799   20808   20820       1
   20808   20814   20823   20835       1   20805   20814   20808   20820       1
   20805   20814   20823   20835       1   20805   20817   20826   20838       1
   20802   20784   20796   20805       1   20796   20781   20799   20811       1
   20796   20805   20817   20829       1   20787   20763   20784   20796       1
   20787   20763   20784   20802       1   20781   20760   20775   20793       1
   20781   20796   20784   20802       1   20781   20799   20808   20820       1
   20778   20757   20775   20793       1   20772   20754   20766   20790       1
   20769   20748   20766   20790       1   20760   20745   20763   20787       1
   20760   20775   20757   20778       1   20760   20781   20799   20811       1
   20757   20742   20754   20772       1   20754   20742   20757   20778       1
   20754   20766   20748   20769       1   20751   20739   20748   20766       1
   20751   20739   20748   20769       1   20748   20766   20754   20772       1
   20745   20736   20739   20751       1   20745   20760   20775   20793       1
   20745   20763   20784   20802       1   20742   20736   20739   20751       1
   20742   20754   20766   20790       1   20742   20757   20775   20793       1
   20739   20748   20766   20790       1   20736   20739   20748   20769       1
   20736   20742   20754   20772       1   20736   20742   20757   20778       1
   20736   20745   20763   20787       1   20946   20934   20940   20949       1
   20943   20931   20940   20949       1   20937   20925   20934   20940       1
   20937   20925   20934   20946       1   20934   20940   20931   20943       1
   20931   20940   20934   20946       1   20928   20916   20922   20931       1
   20925   20934   20940   20949       1   20922   20913   20925   20937       1
   20922   20931   20940   20949       1   20919   20907   20916   20922       1
   20919   20907   20916   20928       1   20916   20922   20931   20943       1
   20913   20922   20916   20928       1   20913   20922   20931   20943       1
   20913   20925   20934   20946       1   20910   20892   20904   20913       1
   20904   20889   20907   20919       1   20904   20913   20925   20937       1
   20895   20871   20892   20904       1   20895   20871   20892   20910       1
   20889   20868   20883   20901       1   20889   20904   20892   20910       1
   20889   20907   20916   20928       1   20886   20865   20883   20901       1
   20880   20862   20874   20898       1   20877   20856   20874   20898       1
   20868   20853   20871   20895       1   20868   20883   20865   20886       1
   20868   20889   20907   20919       1   20865   20850   20862   20880       1
   20862   20850   20865   20886       1   20862   20874   20856   20877       1
   20859   20847   20856   20874       1   20859   20847   20856   20877       1
   20856   20874   20862   20880       1   20853   20844   20847   20859       1
   20853   20868   20883   20901       1   20853   20871   20892   20910       1
   20850   20844   20847   20859       1   20850   20862   20874   20898       1
   20850   20865   20883   20901       1   20847   20856   20874   20898       1
   20844   20847   20856   20877       1   20844   20850   20862   20880       1
   20844   20850   20865   20886       1   20844   20853   20871   20895       1
   21054   21042   21048   21057       1   21051   21039   21048   21057       1
   21045   21033   21042   21048       1   21045   21033   21042   21054       1
   21042   21048   21039   21051       1   21039   21048   21042   21054       1
   21036   21024   21030   21039       1   21033   21042   21048   21057       1
   21030   21021   21033   21045       1   21030   21039   21048   21057       1
   21027   21015   21024   21030       1   21027   21015   21024   21036       1
   21024   21030   21039   21051       1   21021   21030   21024   21036       1
   21021   21030   21039   21051       1   21021   21033   21042   21054       1
   21018   21000   21012   21021       1   21012   20997   21015   21027       1
   21012   21021   21033   21045       1   21003   20979   21000   21012       1
   21003   20979   21000   21018       1   20997   20976   20991   21009       1
   20997   21012   21000   21018       1   20997   21015   21024   21036       1
   20994   20973   20991   21009       1   20988   20970   20982   21006       1
   20985   20964   20982   21006       1   20976   20961   20979   21003       1
   20976   20991   20973   20994       1   20976   20997   21015   21027       1
   20973   20958   20970   20988       1   20970   20958   20973   20994       1
   20970   20982   20964   20985       1   20967   20955   20964   20982       1
   20967   20955   20964   20985       1   20964   20982   20970   20988       1
   20961   20952   20955   20967       1   20961   20976   20991   21009       1
   20961   20979   21000   21018       1   20958   20952   20955   20967       1
   20958   20970   20982   21006       1   20958   20973   20991   21009       1
   20955   20964   20982   21006       1   20952   20955   20964   20985       1
   20952   20958   20970   20988       1   20952   20958   20973   20994       1
   20952   20961   20979   21003       1   21162   21150   21156   21165       1
   21159   21147   21156   21165       1   21153   21141   21150   21156       1
   21153   21141   21150   21162       1   21150   21156   21147   21159       1
   21147   21156   21150   21162       1   21144   21132   21138   21147       1
   21141   21150   21156   21165       1   21138   21129   21141   21153       1
   21138   21147   21156   21165       1   21135   21123   21132   21138       1
   21135   21123   21132   21144       1   21132   21138   21147   21159       1
   21129   21138   21132   21144       1   21129   21138   21147   21159       1
   21129   21141   21150   21162       1   21126   21108   21120   21129       1
   21120   21105   21123   21135       1   21120   21129   21141   21153       1
   21111   21087   21108   21120       1   21111   21087   21108   21126       1
   21105   21084   21099   21117       1   21105   21120   21108   21126       1
   21105   21123   21132   21144       1   21102   21081   21099   21117       1
   21096   21078   21090   21114       1   21093   21072   21090   21114       1
   21084   21069   21087   21111       1   21084   21099   21081   21102       1
   21084   21105   21123   21135       1   21081   21066   21078   21096       1
   21078   21066   21081   21102       1   21078   21090   21072   21093       1
   21075   21063   21072   21090       1   21075   21063   21072   21093       1
   21072   21090   21078   21096       1   21069   21060   21063   21075       1
   21069   21084   21099   21117       1   21069   21087   21108   21126       1
   21066   21060   21063   21075       1   21066   21078   21090   21114       1
   21066   21081   21099   21117       1   21063   21072   21090   21114       1
   21060   21063   21072   21093       1   21060   21066   21078   21096       1
   21060   21066   21081   21102       1   21060   21069   21087   21111       1
   21270   21258   21264   21273       1   21267   21255   21264   21273       1
   21261   21249   21258   21264       1   21261   21249   21258   21270       1
   21258   21264   21255   21267       1   21255   21264   21258   21270       1
   21252   21240   21246   21255       1   21249   21258   21264   21273       1
   21246   21237   21249   21261       1   21246   21255   21264   21273       1
   21243   21231   21240   21246       1   21243   21231   21240   21252       1
   21240   21246   21255   21267       1   21237   21246   21240   21252       1
   21237   21246   21255   21267       1   21237   21249   21258   21270       1
   21234   21216   21228   21237       1   21228   21213   21231   21243       1
   21228   21237   21249   21261       1   21219   21195   21216   21228       1
   21219   21195   21216   21234       1   21213   21192   21207   21225       1
   21213   21228   21216   21234       1   21213   21231   21240   21252       1
   21210   21189   21207   21225       1   21204   21186   21198   21222       1
   21201   21180   21198   21222       1   21192   21177   21195   21219       1
   21192   21207   21189   21210       1   21192   21213   21231   21243       1
   21189   21174   21186   21204       1   21186   21174   21189   21210       1
   21186   21198   21180   21201       1   21183   21171   21180   21198       1
   21183   21171   21180   21201       1   21180   21198   21186   21204       1
   21177   21168   21171   21183       1   21177   21192   21207   21225       1
   21177   21195   21216   21234       1   21174   21168   21171   21183       1
   21174   21186   21198   21222       1   21174   21189   21207   21225       1
   21171   21180   21198   21222       1   21168   21171   21180   21201       1
   21168   21174   21186   21204       1   21168   21174   21189   21210       1
   21168   21177   21195   21219       1   21378   21366   21372   21381       1
   21375   21363   21372   21381       1   21369   21357   21366   21372       1
   21369   21357   21366   21378       1   21366   21372   21363   21375       1
   21363   21372   21366   21378       1   21360   21348   21354   21363       1
   21357   21366   21372   21381       1   21354   21345   21357   21369       1
   21354   21363   21372   21381       1   21351   21339   21348   21354       1
   21351   21339   21348   21360       1   21348   21354   21363   21375       1
   21345   21354   21348   21360       1   21345   21354   21363   21375       1
   21345   21357   21366   21378       1   21342   21324   21336   21345       1
   21336   21321   21339   21351       1   21336   21345   21357   21369       1
   21327   21303   21324   21336       1   21327   21303   21324   21342       1
   21321   21300   21315   21333       1   21321   21336   21324   21342       1
   21321   21339   21348   21360       1   21318   21297   21315   21333       1
   21312   21294   21306   21330       1   21309   21288   21306   21330       1
   21300   21285   21303   21327       1   21300   21315   21297   21318       1
   21300   21321   21339   21351       1   21297   21282   21294   21312       1
   21294   21282   21297   21318       1   21294   21306   21288   21309       1
   21291   21279   21288   21306       1   21291   21279   21288   21309       1
   21288   21306   21294   21312       1   21285   21276   21279   21291       1
   21285   21300   21315   21333       1   21285   21303   21324   21342       1
   21282   21276   21279   21291       1   21282   21294   21306   21330       1
   21282   21297   21315   21333       1   21279   21288   21306   21330       1
   21276   21279   21288   21309       1   21276   21282   21294   21312       1
   21276   21282   21297   21318       1   21276   21285   21303   21327       1
   21486   21474   21480   21489       1   21483   21471   21480   21489       1
   21477   21465   21474   21480       1   21477   21465   21474   21486       1
   21474   21480   21471   21483       1   21471   21480   21474   21486       1
   21468   21456   21462   21471       1   21465   21474   21480   21489       1
   21462   21453   21465   21477       1   21462   21471   21480   21489       1
   21459   21447   21456   21462       1   21459   21447   21456   21468       1
   21456   21462   21471   21483       1   21453   21462   21456   21468       1
   21453   21462   21471   21483       1   21453   21465   21474   21486       1
   21450   21432   21444   21453       1   21444   21429   21447   21459       1
   21444   21453   21465   21477       1   21435   21411   21432   21444       1
   21435   21411   21432   21450       1   21429   21408   21423   21441       1
   21429   21444   21432   21450       1   21429   21447   21456   21468       1
   21426   21405   21423   21441       1   21420   21402   21414   21438       1
   21417   21396   21414   21438       1   21408   21393   21411   21435       1
   21408   21423   21405   21426       1   21408   21429   21447   21459       1
   21405   21390   21402   21420       1   21402   21390   21405   21426       1
   21402   21414   21396   21417       1   21399   21387   21396   21414       1
   21399   21387   21396   21417       1   21396   21414   21402   21420       1
   21393   21384   21387   21399       1   21393   21408   21423   21441       1
   21393   21411   21432   21450       1   21390   21384   21387   21399       1
   21390   21402   21414   21438       1   21390   21405   21423   21441       1
   21387   21396   21414   21438       1   21384   21387   21396   21417       1
   21384   21390   21402   21420       1   21384   21390   21405   21426       1
   21384   21393   21411   21435       1   21594   21582   21588   21597       1
   21591   21579   21588   21597       1   21585   21573   21582   21588       1
   21585   21573   21582   21594       1   21582   21588   21579   21591       1
   21579   21588   21582   21594       1   21576   21564   21570   21579       1
   21573   21582   21588   21597       1   21570   21561   21573   21585       1
   21570   21579   21588   21597       1   21567   21555   21564   21570       1
   21567   21555   21564   21576       1   21564   21570   21579   21591       1
   21561   21570   21564   21576       1   21561   21570   21579   21591       1
   21561   21573   21582   21594       1   21558   21540   21552   21561       1
   21552   21537   21555   21567       1   21552   21561   21573   21585       1
   21543   21519   21540   21552       1   21543   21519   21540   21558       1
   21537   21516   21531   21549       1   21537   21552   21540   21558       1
   21537   21555   21564   21576       1   21534   21513   21531   21549       1
   21528   21510   21522   21546       1   21525   21504   21522   21546       1
   21516   21501   21519   21543       1   21516   21531   21513   21534       1
   21516   21537   21555   21567       1   21513   21498   21510   21528       1
   21510   21498   21513   21534       1   21510   21522   21504   21525       1
   21507   21495   21504   21522       1   21507   21495   21504   21525       1
   21504   21522   21510   21528       1   21501   21492   21495   21507       1
   21501   21516   21531   21549       1   21501   21519   21540   21558       1
   21498   21492   21495   21507       1   21498   21510   21522   21546       1
   21498   21513   21531   21549       1   21495   21504   21522   21546       1
   21492   21495   21504   21525       1   21492   21498   21510   21528       1
   21492   21498   21513   21534       1   21492   21501   21519   21543       1
   21702   21690   21696   21705       1   21699   21687   21696   21705       1
   21693   21681   21690   21696       1   21693   21681   21690   21702       1
   21690   21696   21687   21699       1   21687   21696   21690   21702       1
   21684   21672   21678   21687       1   21681   21690   21696   21705       1
   21678   21669   21681   21693       1   21678   21687   21696   21705       1
   21675   21663   21672   21678       1   21675   21663   21672   21684       1
   21672   21678   21687   21699       1   21669   21678   21672   21684       1
   21669   21678   21687   21699       1   21669   21681   21690   21702       1
   21666   21648   21660   21669       1   21660   21645   21663   21675       1
   21660   21669   21681   21693       1   21651   21627   21648   21660       1
   21651   21627   21648   21666       1   21645   21624   21639   21657       1
   21645   21660   21648   21666       1   21645   21663   21672   21684       1
   21642   21621   21639   21657       1   21636   21618   21630   21654       1
   21633   21612   21630   21654       1   21624   21609   21627   21651       1
   21624   21639   21621   21642       1   21624   21645   21663   21675       1
   21621   21606   21618   21636       1   21618   21606   21621   21642       1
   21618   21630   21612   21633       1   21615   21603   21612   21630       1
   21615   21603   21612   21633       1   21612   21630   21618   21636       1
   21609   21600   21603   21615       1   21609   21624   21639   21657       1
   21609   21627   21648   21666       1   21606   21600   21603   21615       1
   21606   21618   21630   21654       1   21606   21621   21639   21657       1
   21603   21612   21630   21654       1   21600   21603   21612   21633       1
   21600   21606   21618   21636       1   21600   21606   21621   21642       1
   21600   21609   21627   21651       1   21810   21798   21804   21813       1
   21807   21795   21804   21813       1   21801   21789   21798   21804       1
   21801   21789   21798   21810       1   21798   21804   21795   21807       1
   21795   21804   21798   21810       1   21792   21780   21786   21795       1
   21789   21798   21804   21813       1   21786   21777   21789   21801       1
   21786   21795   21804   21813       1   21783   21771   21780   21786       1
   21783   21771   21780   21792       1   21780   21786   21795   21807       1
   21777   21786   21780   21792       1   21777   21786   21795   21807       1
   21777   21789   21798   21810       1   21774   21756   21768   21777       1
   21768   21753   21771   21783       1   21768   21777   21789   21801       1
   21759   21735   21756   21768       1   21759   21735   21756   21774       1
   21753   21732   21747   21765       1   21753   21768   21756   21774       1
   21753   21771   21780   21792       1   21750   21729   21747   21765       1
   21744   21726   21738   21762       1   21741   21720   21738   21762       1
   21732   21717   21735   21759       1   21732   21747   21729   21750       1
   21732   21753   21771   21783       1   21729   21714   21726   21744       1
   21726   21714   21729   21750       1   21726   21738   21720   21741       1
   21723   21711   21720   21738       1   21723   21711   21720   21741       1
   21720   21738   21726   21744       1   21717   21708   21711   21723       1
   21717   21732   21747   21765       1   21717   21735   21756   21774       1
   21714   21708   21711   21723       1   21714   21726   21738   21762       1
   21714   21729   21747   21765       1   21711   21720   21738   21762       1
   21708   21711   21720   21741       1   21708   21714   21726   21744       1
   21708   21714   21729   21750       1   21708   21717   21735   21759       1
   21918   21906   21912   21921       1   21915   21903   21912   21921       1
   21909   21897   21906   21912       1   21909   21897   21906   21918       1
   21906   21912   21903   21915       1   21903   21912   21906   21918       1
   21900   21888   21894   21903       1   21897   21906   21912   21921       1
   21894   21885   21897   21909       1   21894   21903   21912   21921       1
   21891   21879   21888   21894       1   21891   21879   21888   21900       1
   21888   21894   21903   21915       1   21885   21894   21888   21900       1
   21885   21894   21903   21915       1   21885   21897   21906   21918       1
   21882   21864   21876   21885       1   21876   21861   21879   21891       1
   21876   21885   21897   21909       1   21867   21843   21864   21876       1
   21867   21843   21864   21882       1   21861   21840   21855   21873       1
   21861   21876   21864   21882       1   21861   21879   21888   21900       1
   21858   21837   21855   21873       1   21852   21834   21846   21870       1
   21849   21828   21846   21870       1   21840   21825   21843   21867       1
   21840   21855   21837   21858       1   21840   21861   21879   21891       1
   21837   21822   21834   21852       1   21834   21822   21837   21858       1
   21834   21846   21828   21849       1   21831   21819   21828   21846       1
   21831   21819   21828   21849       1   21828   21846   21834   21852       1
   21825   21816   21819   21831       1   21825   21840   21855   21873       1
   21825   21843   21864   21882       1   21822   21816   21819   21831       1
   21822   21834   21846   21870       1   21822   21837   21855   21873       1
   21819   21828   21846   21870       1   21816   21819   21828   21849       1
   21816   21822   21834   21852       1   21816   21822   21837   21858       1
   21816   21825   21843   21867       1   22026   22014   22020   22029       1
   22023   22011   22020   22029       1   22017   22005   22014   22020       1
   22017   22005   22014   22026       1   22014   22020   22011   22023       1
   22011   22020   22014   22026       1   22008   21996   22002   22011       1
   22005   22014   22020   22029       1   22002   21993   22005   22017       1
   22002   22011   22020   22029       1   21999   21987   21996   22002       1
   21999   21987   21996   22008       1   21996   22002   22011   22023       1
   21993   22002   21996   22008       1   21993   22002   22011   22023       1
   21993   22005   22014   22026       1   21990   21972   21984   21993       1
   21984   21969   21987   21999       1   21984   21993   22005   22017       1
   21975   21951   21972   21984       1   21975   21951   21972   21990       1
   21969   21948   21963   21981       1   21969   21984   21972   21990       1
   21969   21987   21996   22008       1   21966   21945   21963   21981       1
   21960   21942   21954   21978       1   21957   21936   21954   21978       1
   21948   21933   21951   21975       1   21948   21963   21945   21966       1
   21948   21969   21987   21999       1   21945   21930   21942   21960       1
   21942   21930   21945   21966       1   21942   21954   21936   21957       1
   21939   21927   21936   21954       1   21939   21927   21936   21957       1
   21936   21954   21942   21960       1   21933   21924   21927   21939       1
   21933   21948   21963   21981       1   21933   21951   21972   21990       1
   21930   21924   21927   21939       1   21930   21942   21954   21978       1
   21930   21945   21963   21981       1   21927   21936   21954   21978       1
   21924   21927   21936   21957       1   21924   21930   21942   21960       1
   21924   21930   21945   21966       1   21924   21933   21951   21975       1
   22134   22122   22128   22137       1   22131   22119   22128   22137       1
   22125   22113   22122   22128       1   22125   22113   22122   22134       1
   22122   22128   22119   22131       1   22119   22128   22122   22134       1
   22116   22104   22110   22119       1   22113   22122   22128   22137       1
   22110   22101   22113   22125       1   22110   22119   22128   22137       1
   22107   22095   22104   22110       1   22107   22095   22104   22116       1
   22104   22110   22119   22131       1   22101   22110   22104   22116       1
   22101   22110   22119   22131       1   22101   22113   22122   22134       1
   22098   22080   22092   22101       1   22092   22077   22095   22107       1
   22092   22101   22113   22125       1   22083   22059   22080   22092       1
   22083   22059   22080   22098       1   22077   22056   22071   22089       1
   22077   22092   22080   22098       1   22077   22095   22104   22116       1
   22074   22053   22071   22089       1   22068   22050   22062   22086       1
   22065   22044   22062   22086       1   22056   22041   22059   22083       1
   22056   22071   22053   22074       1   22056   22077   22095   22107       1
   22053   22038   22050   22068       1   22050   22038   22053   22074       1
   22050   22062   22044   22065       1   22047   22035   22044   22062       1
   22047   22035   22044   22065       1   22044   22062   22050   22068       1
   22041   22032   22035   22047       1   22041   22056   22071   22089       1
   22041   22059   22080   22098       1   22038   22032   22035   22047       1
   22038   22050   22062   22086       1   22038   22053   22071   22089       1
   22035   22044   22062   22086       1   22032   22035   22044   22065       1
   22032   22038   22050   22068       1   22032   22038   22053   22074       1
   22032   22041   22059   22083       1   22242   22230   22236   22245       1
   22239   22227   22236   22245       1   22233   22221   22230   22236       1
   22233   22221   22230   22242       1   22230   22236   22227   22239       1
   22227   22236   22230   22242       1   22224   22212   22218   22227       1
   22221   22230   22236   22245       1   22218   22209   22221   22233       1
   22218   22227   22236   22245       1   22215   22203   22212   22218       1
   22215   22203   22212   22224       1   22212   22218   22227   22239       1
   22209   22218   22212   22224       1   22209   22218   22227   22239       1
   22209   22221   22230   22242       1   22206   22188   22200   22209       1
   22200   22185   22203   22215       1   22200   22209   22221   22233       1
   22191   22167   22188   22200       1   22191   22167   22188   22206       1
   22185   22164   22179   22197       1   22185   22200   22188   22206       1
   22185   22203   22212   22224       1   22182   22161   22179   22197       1
   22176   22158   22170   22194       1   22173   22152   22170   22194       1
   22164   22149   22167   22191       1   22164   22179   22161   22182       1
   22164   22185   22203   22215       1   22161   22146   22158   22176       1
   22158   22146   22161   22182       1   22158   22170   22152   22173       1
   22155   22143   22152   22170       1   22155   22143   22152   22173       1
   22152   22170   22158   22176       1   22149   22140   22143   22155       1
   22149   22164   22179   22197       1   22149   22167   22188   22206       1
   22146   22140   22143   22155       1   22146   22158   22170   22194       1
   22146   22161   22179   22197       1   22143   22152   22170   22194       1
   22140   22143   22152   22173       1   22140   22146   22158   22176       1
   22140   22146   22161   22182       1   22140   22149   22167   22191       1
   22350   22338   22344   22353       1   22347   22335   22344   22353       1
   22341   22329   22338   22344       1   22341   22329   22338   22350       1
   22338   22344   22335   22347       1   22335   22344   22338   22350       1
   22332   22320   22326   22335       1   22329   22338   22344   22353       1
   22326   22317   22329   22341       1   22326   22335   22344   22353       1
   22323   22311   22320   22326       1   22323   22311   22320   22332       1
   22320   22326   22335   22347       1   22317   22326   22320   22332       1
   22317   22326   22335   22347       1   22317   22329   22338   22350       1
   22314   22296   22308   22317       1   22308   22293   22311   22323       1
   22308   22317   22329   22341       1   22299   22275   22296   22308       1
   22299   22275   22296   22314       1   22293   22272   22287   22305       1
   22293   22308   22296   22314       1   22293   22311   22320   22332       1
   22290   22269   22287   22305       1   22284   22266   22278   22302       1
   22281   22260   22278   22302       1   22272   22257   22275   22299       1
   22272   22287   22269   22290       1   22272   22293   22311   22323       1
   22269   22254   22266   22284       1   22266   22254   22269   22290       1
   22266   22278   22260   22281       1   22263   22251   22260   22278       1
   22263   22251   22260   22281       1   22260   22278   22266   22284       1
   22257   22248   22251   22263       1   22257   22272   22287   22305       1
   22257   22275   22296   22314       1   22254   22248   22251   22263       1
   22254   22266   22278   22302       1   22254   22269   22287   22305       1
   22251   22260   22278   22302       1   22248   22251   22260   22281       1
   22248   22254   22266   22284       1   22248   22254   22269   22290       1
   22248   22257   22275   22299       1   22458   22446   22452   22461       1
   22455   22443   22452   22461       1   22449   22437   22446   22452       1
   22449   22437   22446   22458       1   22446   22452   22443   22455       1
   22443   22452   22446   22458       1   22440   22428   22434   22443       1
   22437   22446   22452   22461       1   22434   22425   22437   22449       1
   22434   22443   22452   22461       1   22431   22419   22428   22434       1
   22431   22419   22428   22440       1   22428   22434   22443   22455       1
   22425   22434   22428   22440       1   22425   22434   22443   22455       1
   22425   22437   22446   22458       1   22422   22404   22416   22425       1
   22416   22401   22419   22431       1   22416   22425   22437   22449       1
   22407   22383   22404   22416       1   22407   22383   22404   22422       1
   22401   22380   22395   22413       1   22401   22416   22404   22422       1
   22401   22419   22428   22440       1   22398   22377   22395   22413       1
   22392   22374   22386   22410       1   22389   22368   22386   22410       1
   22380   22365   22383   22407       1   22380   22395   22377   22398       1
   22380   22401   22419   22431       1   22377   22362   22374   22392       1
   22374   22362   22377   22398       1   22374   22386   22368   22389       1
   22371   22359   22368   22386       1   22371   22359   22368   22389       1
   22368   22386   22374   22392       1   22365   22356   22359   22371       1
   22365   22380   22395   22413       1   22365   22383   22404   22422       1
   22362   22356   22359   22371       1   22362   22374   22386   22410       1
   22362   22377   22395   22413       1   22359   22368   22386   22410       1
   22356   22359   22368   22389       1   22356   22362   22374   22392       1
   22356   22362   22377   22398       1   22356   22365   22383   22407       1
   22566   22554   22560   22569       1   22563   22551   22560   22569       1
   22557   22545   22554   22560       1   22557   22545   22554   22566       1
   22554   22560   22551   22563       1   22551   22560   22554   22566       1
   22548   22536   22542   22551       1   22545   22554   22560   22569       1
   22542   22533   22545   22557       1   22542   22551   22560   22569       1
   22539   22527   22536   22542       1   22539   22527   22536   22548       1
   22536   22542   22551   22563       1   22533   22542   22536   22548       1
   22533   22542   22551   22563       1   22533   22545   22554   22566       1
   22530   22512   22524   22533       1   22524   22509   22527   22539       1
   22524   22533   22545   22557       1   22515   22491   22512   22524       1
   22515   22491   22512   22530       1   22509   22488   22503   22521       1
   22509   22524   22512   22530       1   22509   22527   22536   22548       1
   22506   22485   22503   22521       1   22500   22482   22494   22518       1
   22497   22476   22494   22518       1   22488   22473   22491   22515       1
   22488   22503   22485   22506       1   22488   22509   22527   22539       1
   22485   22470   22482   22500       1   22482   22470   22485   22506       1
   22482   22494   22476   22497       1   22479   22467   22476   22494       1
   22479   22467   22476   22497       1   22476   22494   22482   22500       1
   22473   22464   22467   22479       1   22473   22488   22503   22521       1
   22473   22491   22512   22530       1   22470   22464   22467   22479       1
   22470   22482   22494   22518       1   22470   22485   22503   22521       1
   22467   22476   22494   22518       1   22464   22467   22476   22497       1
   22464   22470   22482   22500       1   22464   22470   22485   22506       1
   22464   22473   22491   22515       1   22674   22662   22668   22677       1
   22671   22659   22668   22677       1   22665   22653   22662   22668       1
   22665   22653   22662   22674       1   22662   22668   22659   22671       1
   22659   22668   22662   22674       1   22656   22644   22650   22659       1
   22653   22662   22668   22677       1   22650   22641   22653   22665       1
   22650   22659   22668   22677       1   22647   22635   22644   22650       1
   22647   22635   22644   22656       1   22644   22650   22659   22671       1
   22641   22650   22644   22656       1   22641   22650   22659   22671       1
   22641   22653   22662   22674       1   22638   22620   22632   22641       1
   22632   22617   22635   22647       1   22632   22641   22653   22665       1
   22623   22599   22620   22632       1   22623   22599   22620   22638       1
   22617   22596   22611   22629       1   22617   22632   22620   22638       1
   22617   22635   22644   22656       1   22614   22593   22611   22629       1
   22608   22590   22602   22626       1   22605   22584   22602   22626       1
   22596   22581   22599   22623       1   22596   22611   22593   22614       1
   22596   22617   22635   22647       1   22593   22578   22590   22608       1
   22590   22578   22593   22614       1   22590   22602   22584   22605       1
   22587   22575   22584   22602       1   22587   22575   22584   22605       1
   22584   22602   22590   22608       1   22581   22572   22575   22587       1
   22581   22596   22611   22629       1   22581   22599   22620   22638       1
   22578   22572   22575   22587       1   22578   22590   22602   22626       1
   22578   22593   22611   22629       1   22575   22584   22602   22626       1
   22572   22575   22584   22605       1   22572   22578   22590   22608       1
   22572   22578   22593   22614       1   22572   22581   22599   22623       1
   22782   22770   22776   22785       1   22779   22767   22776   22785       1
   22773   22761   22770   22776       1   22773   22761   22770   22782       1
   22770   22776   22767   22779       1   22767   22776   22770   22782       1
   22764   22752   22758   22767       1   22761   22770   22776   22785       1
   22758   22749   22761   22773       1   22758   22767   22776   22785       1
   22755   22743   22752   22758       1   22755   22743   22752   22764       1
   22752   22758   22767   22779       1   22749   22758   22752   22764       1
   22749   22758   22767   22779       1   22749   22761   22770   22782       1
   22746   22728   22740   22749       1   22740   22725   22743   22755       1
   22740   22749   22761   22773       1   22731   22707   22728   22740       1
   22731   22707   22728   22746       1   22725   22704   22719   22737       1
   22725   22740   22728   22746       1   22725   22743   22752   22764       1
   22722   22701   22719   22737       1   22716   22698   22710   22734       1
   22713   22692   22710   22734       1   22704   22689   22707   22731       1
   22704   22719   22701   22722       1   22704   22725   22743   22755       1
   22701   22686   22698   22716       1   22698   22686   22701   22722       1
   22698   22710   22692   22713       1   22695   22683   22692   22710       1
   22695   22683   22692   22713       1   22692   22710   22698   22716       1
   22689   22680   22683   22695       1   22689   22704   22719   22737       1
   22689   22707   22728   22746       1   22686   22680   22683   22695       1
   22686   22698   22710   22734       1   22686   22701   22719   22737       1
   22683   22692   22710   22734       1   22680   22683   22692   22713       1
   22680   22686   22698   22716       1   22680   22686   22701   22722       1
   22680   22689   22707   22731       1   22890   22878   22884   22893       1
   22887   22875   22884   22893       1   22881   22869   22878   22884       1
   22881   22869   22878   22890       1   22878   22884   22875   22887       1
   22875   22884   22878   22890       1   22872   22860   22866   22875       1
   22869   22878   22884   22893       1   22866   22857   22869   22881       1
   22866   22875   22884   22893       1   22863   22851   22860   22866       1
   22863   22851   22860   22872       1   22860   22866   22875   22887       1
   22857   22866   22860   22872       1   22857   22866   22875   22887       1
   22857   22869   22878   22890       1   22854   22836   22848   22857       1
   22848   22833   22851   22863       1   22848   22857   22869   22881       1
   22839   22815   22836   22848       1   22839   22815   22836   22854       1
   22833   22812   22827   22845       1   22833   22848   22836   22854       1
   22833   22851   22860   22872       1   22830   22809   22827   22845       1
   22824   22806   22818   22842       1   22821   22800   22818   22842       1
   22812   22797   22815   22839       1   22812   22827   22809   22830       1
   22812   22833   22851   22863       1   22809   22794   22806   22824       1
   22806   22794   22809   22830       1   22806   22818   22800   22821       1
   22803   22791   22800   22818       1   22803   22791   22800   22821       1
   22800   22818   22806   22824       1   22797   22788   22791   22803       1
   22797   22812   22827   22845       1   22797   22815   22836   22854       1
   22794   22788   22791   22803       1   22794   22806   22818   22842       1
   22794   22809   22827   22845       1   22791   22800   22818   22842       1
   22788   22791   22800   22821       1   22788   22794   22806   22824       1
   22788   22794   22809   22830       1   22788   22797   22815   22839       1
   22998   22986   22992   23001       1   22995   22983   22992   23001       1
   22989   22977   22986   22992       1   22989   22977   22986   22998       1
   22986   22992   22983   22995       1   22983   22992   22986   22998       1
   22980   22968   22974   22983       1   22977   22986   22992   23001       1
   22974   22965   22977   22989       1   22974   22983   22992   23001       1
   22971   22959   22968   22974       1   22971   22959   22968   22980       1
   22968   22974   22983   22995       1   22965   22974   22968   22980       1
   22965   22974   22983   22995       1   22965   22977   22986   22998       1
   22962   22944   22956   22965       1   22956   22941   22959   22971       1
   22956   22965   22977   22989       1   22947   22923   22944   22956       1
   22947   22923   22944   22962       1   22941   22920   22935   22953       1
   22941   22956   22944   22962       1   22941   22959   22968   22980       1
   22938   22917   22935   22953       1   22932   22914   22926   22950       1
   22929   22908   22926   22950       1   22920   22905   22923   22947       1
   22920   22935   22917   22938       1   22920   22941   22959   22971       1
   22917   22902   22914   22932       1   22914   22902   22917   22938       1
   22914   22926   22908   22929       1   22911   22899   22908   22926       1
   22911   22899   22908   22929       1   22908   22926   22914   22932       1
   22905   22896   22899   22911       1   22905   22920   22935   22953       1
   22905   22923   22944   22962       1   22902   22896   22899   22911       1
   22902   22914   22926   22950       1   22902   22917   22935   22953       1
   22899   22908   22926   22950       1   22896   22899   22908   22929       1
   22896   22902   22914   22932       1   22896   22902   22917   22938       1
   22896   22905   22923   22947       1   23106   23094   23100   23109       1
   23103   23091   23100   23109       1   23097   23085   23094   23100       1
   23097   23085   23094   23106       1   23094   23100   23091   23103       1
   23091   23100   23094   23106       1   23088   23076   23082   23091       1
   23085   23094   23100   23109       1   23082   23073   23085   23097       1
   23082   23091   23100   23109       1   23079   23067   23076   23082       1
   23079   23067   23076   23088       1   23076   23082   23091   23103       1
   23073   23082   23076   23088       1   23073   23082   23091   23103       1
   23073   23085   23094   23106       1   23070   23052   23064   23073       1
   23064   23049   23067   23079       1   23064   23073   23085   23097       1
   23055   23031   23052   23064       1   23055   23031   23052   23070       1
   23049   23028   23043   23061       1   23049   23064   23052   23070       1
   23049   23067   23076   23088       1   23046   23025   23043   23061       1
   23040   23022   23034   23058       1   23037   23016   23034   23058       1
   23028   23013   23031   23055       1   23028   23043   23025   23046       1
   23028   23049   23067   23079       1   23025   23010   23022   23040       1
   23022   23010   23025   23046       1   23022   23034   23016   23037       1
   23019   23007   23016   23034       1   23019   23007   23016   23037       1
   23016   23034   23022   23040       1   23013   23004   23007   23019       1
   23013   23028   23043   23061       1   23013   23031   23052   23070       1
   23010   23004   23007   23019       1   23010   23022   23034   23058       1
   23010   23025   23043   23061       1   23007   23016   23034   23058       1
   23004   23007   23016   23037       1   23004   23010   23022   23040       1
   23004   23010   23025   23046       1   23004   23013   23031   23055       1
   23214   23202   23208   23217       1   23211   23199   23208   23217       1
   23205   23193   23202   23208       1   23205   23193   23202   23214       1
   23202   23208   23199   23211       1   23199   23208   23202   23214       1
   23196   23184   23190   23199       1   23193   23202   23208   23217       1
   23190   23181   23193   23205       1   23190   23199   23208   23217       1
   23187   23175   23184   23190       1   23187   23175   23184   23196       1
   23184   23190   23199   23211       1   23181   23190   23184   23196       1
   23181   23190   23199   23211       1   23181   23193   23202   23214       1
   23178   23160   23172   23181       1   23172   23157   23175   23187       1
   23172   23181   23193   23205       1   23163   23139   23160   23172       1
   23163   23139   23160   23178       1   23157   23136   23151   23169       1
   23157   23172   23160   23178       1   23157   23175   23184   23196       1
   23154   23133   23151   23169       1   23148   23130   23142   23166       1
   23145   23124   23142   23166       1   23136   23121   23139   23163       1
   23136   23151   23133   23154       1   23136   23157   23175   23187       1
   23133   23118   23130   23148       1   23130   23118   23133   23154       1
   23130   23142   23124   23145       1   23127   23115   23124   23142       1
   23127   23115   23124   23145       1   23124   23142   23130   23148       1
   23121   23112   23115   23127       1   23121   23136   23151   23169       1
   23121   23139   23160   23178       1   23118   23112   23115   23127       1
   23118   23130   23142   23166       1   23118   23133   23151   23169       1
   23115   23124   23142   23166       1   23112   23115   23124   23145       1
   23112   23118   23130   23148       1   23112   23118   23133   23154       1
   23112   23121   23139   23163       1   23322   23310   23316   23325       1
   23319   23307   23316   23325       1   23313   23301   23310   23316       1
   23313   23301   23310   23322       1   23310   23316   23307   23319       1
   23307   23316   23310   23322       1   23304   23292   23298   23307       1
   23301   23310   23316   23325       1   23298   23289   23301   23313       1
   23298   23307   23316   23325       1   23295   23283   23292   23298       1
   23295   23283   23292   23304       1   23292   23298   23307   23319       1
   23289   23298   23292   23304       1   23289   23298   23307   23319       1
   23289   23301   23310   23322       1   23286   23268   23280   23289       1
   23280   23265   23283   23295       1   23280   23289   23301   23313       1
   23271   23247   23268   23280       1   23271   23247   23268   23286       1
   23265   23244   23259   23277       1   23265   23280   23268   23286       1
   23265   23283   23292   23304       1   23262   23241   23259   23277       1
   23256   23238   23250   23274       1   23253   23232   23250   23274       1
   23244   23229   23247   23271       1   23244   23259   23241   23262       1
   23244   23265   23283   23295       1   23241   23226   23238   23256       1
   23238   23226   23241   23262       1   23238   23250   23232   23253       1
   23235   23223   23232   23250       1   23235   23223   23232   23253       1
   23232   23250   23238   23256       1   23229   23220   23223   23235       1
   23229   23244   23259   23277       1   23229   23247   23268   23286       1
   23226   23220   23223   23235       1   23226   23238   23250   23274       1
   23226   23241   23259   23277       1   23223   23232   23250   23274       1
   23220   23223   23232   23253       1   23220   23226   23238   23256       1
   23220   23226   23241   23262       1   23220   23229   23247   23271       1
   23430   23418   23424   23433       1   23427   23415   23424   23433       1
   23421   23409   23418   23424       1   23421   23409   23418   23430       1
   23418   23424   23415   23427       1   23415   23424   23418   23430       1
   23412   23400   23406   23415       1   23409   23418   23424   23433       1
   23406   23397   23409   23421       1   23406   23415   23424   23433       1
   23403   23391   23400   23406       1   23403   23391   23400   23412       1
   23400   23406   23415   23427       1   23397   23406   23400   23412       1
   23397   23406   23415   23427       1   23397   23409   23418   23430       1
   23394   23376   23388   23397       1   23388   23373   23391   23403       1
   23388   23397   23409   23421       1   23379   23355   23376   23388       1
   23379   23355   23376   23394       1   23373   23352   23367   23385       1
   23373   23388   23376   23394       1   23373   23391   23400   23412       1
   23370   23349   23367   23385       1   23364   23346   23358   23382       1
   23361   23340   23358   23382       1   23352   23337   23355   23379       1
   23352   23367   23349   23370       1   23352   23373   23391   23403       1
   23349   23334   23346   23364       1   23346   23334   23349   23370       1
   23346   23358   23340   23361       1   23343   23331   23340   23358       1
   23343   23331   23340   23361       1   23340   23358   23346   23364       1
   23337   23328   23331   23343       1   23337   23352   23367   23385       1
   23337   23355   23376   23394       1   23334   23328   23331   23343       1
   23334   23346   23358   23382       1   23334   23349   23367   23385       1
   23331   23340   23358   23382       1   23328   23331   23340   23361       1
   23328   23334   23346   23364       1   23328   23334   23349   23370       1
   23328   23337   23355   23379       1   23538   23526   23532   23541       1
   23535   23523   23532   23541       1   23529   23517   23526   23532       1
   23529   23517   23526   23538       1   23526   23532   23523   23535       1
   23523   23532   23526   23538       1   23520   23508   23514   23523       1
   23517   23526   23532   23541       1   23514   23505   23517   23529       1
   23514   23523   23532   23541       1   23511   23499   23508   23514       1
   23511   23499   23508   23520       1   23508   23514   23523   23535       1
   23505   23514   23508   23520       1   23505   23514   23523   23535       1
   23505   23517   23526   23538       1   23502   23484   23496   23505       1
   23496   23481   23499   23511       1   23496   23505   23517   23529       1
   23487   23463   23484   23496       1   23487   23463   23484   23502       1
   23481   23460   23475   23493       1   23481   23496   23484   23502       1
   23481   23499   23508   23520       1   23478   23457   23475   23493       1
   23472   23454   23466   23490       1   23469   23448   23466   23490       1
   23460   23445   23463   23487       1   23460   23475   23457   23478       1
   23460   23481   23499   23511       1   23457   23442   23454   23472       1
   23454   23442   23457   23478       1   23454   23466   23448   23469       1
   23451   23439   23448   23466       1   23451   23439   23448   23469       1
   23448   23466   23454   23472       1   23445   23436   23439   23451       1
   23445   23460   23475   23493       1   23445   23463   23484   23502       1
   23442   23436   23439   23451       1   23442   23454   23466   23490       1
   23442   23457   23475   23493       1   23439   23448   23466   23490       1
   23436   23439   23448   23469       1   23436   23442   23454   23472       1
   23436   23442   23457   23478       1   23436   23445   23463   23487       1
   23646   23634   23640   23649       1   23643   23631   23640   23649       1
   23637   23625   23634   23640       1   23637   23625   23634   23646       1
   23634   23640   23631   23643       1   23631   23640   23634   23646       1
   23628   23616   23622   23631       1   23625   23634   23640   23649       1
   23622   23613   23625   23637       1   23622   23631   23640   23649       1
   23619   23607   23616   23622       1   23619   23607   23616   23628       1
   23616   23622   23631   23643       1   23613   23622   23616   23628       1
   23613   23622   23631   23643       1   23613   23625   23634   23646       1
   23610   23592   23604   23613       1   23604   23589   23607   23619       1
   23604   23613   23625   23637       1   23595   23571   23592   23604       1
   23595   23571   23592   23610       1   23589   23568   23583   23601       1
   23589   23604   23592   23610       1   23589   23607   23616   23628       1
   23586   23565   23583   23601       1   23580   23562   23574   23598       1
   23577   23556   23574   23598       1   23568   23553   23571   23595       1
   23568   23583   23565   23586       1   23568   23589   23607   23619       1
   23565   23550   23562   23580       1   23562   23550   23565   23586       1
   23562   23574   23556   23577       1   23559   23547   23556   23574       1
   23559   23547   23556   23577       1   23556   23574   23562   23580       1
   23553   23544   23547   23559       1   23553   23568   23583   23601       1
   23553   23571   23592   23610       1   23550   23544   23547   23559       1
   23550   23562   23574   23598       1   23550   23565   23583   23601       1
   23547   23556   23574   23598       1   23544   23547   23556   23577       1
   23544   23550   23562   23580       1   23544   23550   23565   23586       1
   23544   23553   23571   23595       1   23754   23742   23748   23757       1
   23751   23739   23748   23757       1   23745   23733   23742   23748       1
   23745   23733   23742   23754       1   23742   23748   23739   23751       1
   23739   23748   23742   23754       1   23736   23724   23730   23739       1
   23733   23742   23748   23757       1   23730   23721   23733   23745       1
   23730   23739   23748   23757       1   23727   23715   23724   23730       1
   23727   23715   23724   23736       1   23724   23730   23739   23751       1
   23721   23730   23724   23736       1   23721   23730   23739   23751       1
   23721   23733   23742   23754       1   23718   23700   23712   23721       1
   23712   23697   23715   23727       1   23712   23721   23733   23745       1
   23703   23679   23700   23712       1   23703   23679   23700   23718       1
   23697   23676   23691   23709       1   23697   23712   23700   23718       1
   23697   23715   23724   23736       1   23694   23673   23691   23709       1
   23688   23670   23682   23706       1   23685   23664   23682   23706       1
   23676   23661   23679   23703       1   23676   23691   23673   23694       1
   23676   23697   23715   23727       1   23673   23658   23670   23688       1
   23670   23658   23673   23694       1   23670   23682   23664   23685       1
   23667   23655   23664   23682       1   23667   23655   23664   23685       1
   23664   23682   23670   23688       1   23661   23652   23655   23667       1
   23661   23676   23691   23709       1   23661   23679   23700   23718       1
   23658   23652   23655   23667       1   23658   23670   23682   23706       1
   23658   23673   23691   23709       1   23655   23664   23682   23706       1
   23652   23655   23664   23685       1   23652   23658   23670   23688       1
   23652   23658   23673   23694       1   23652   23661   23679   23703       1
   23862   23850   23856   23865       1   23859   23847   23856   23865       1
   23853   23841   23850   23856       1   23853   23841   23850   23862       1
   23850   23856   23847   23859       1   23847   23856   23850   23862       1
   23844   23832   23838   23847       1   23841   23850   23856   23865       1
   23838   23829   23841   23853       1   23838   23847   23856   23865       1
   23835   23823   23832   23838       1   23835   23823   23832   23844       1
   23832   23838   23847   23859       1   23829   23838   23832   23844       1
   23829   23838   23847   23859       1   23829   23841   23850   23862       1
   23826   23808   23820   23829       1   23820   23805   23823   23835       1
   23820   23829   23841   23853       1   23811   23787   23808   23820       1
   23811   23787   23808   23826       1   23805   23784   23799   23817       1
   23805   23820   23808   23826       1   23805   23823   23832   23844       1
   23802   23781   23799   23817       1   23796   23778   23790   23814       1
   23793   23772   23790   23814       1   23784   23769   23787   23811       1
   23784   23799   23781   23802       1   23784   23805   23823   23835       1
   23781   23766   23778   23796       1   23778   23766   23781   23802       1
   23778   23790   23772   23793       1   23775   23763   23772   23790       1
   23775   23763   23772   23793       1   23772   23790   23778   23796       1
   23769   23760   23763   23775       1   23769   23784   23799   23817       1
   23769   23787   23808   23826       1   23766   23760   23763   23775       1
   23766   23778   23790   23814       1   23766   23781   23799   23817       1
   23763   23772   23790   23814       1   23760   23763   23772   23793       1
   23760   23766   23778   23796       1   23760   23766   23781   23802       1
   23760   23769   23787   23811       1   23970   23958   23964   23973       1
   23967   23955   23964   23973       1   23961   23949   23958   23964       1
   23961   23949   23958   23970       1   23958   23964   23955   23967       1
   23955   23964   23958   23970       1   23952   23940   23946   23955       1
   23949   23958   23964   23973       1   23946   23937   23949   23961       1
   23946   23955   23964   23973       1   23943   23931   23940   23946       1
   23943   23931   23940   23952       1   23940   23946   23955   23967       1
   23937   23946   23940   23952       1   23937   23946   23955   23967       1
   23937   23949   23958   23970       1   23934   23916   23928   23937       1
   23928   23913   23931   23943       1   23928   23937   23949   23961       1
   23919   23895   23916   23928       1   23919   23895   23916   23934       1
   23913   23892   23907   23925       1   23913   23928   23916   23934       1
   23913   23931   23940   23952       1   23910   23889   23907   23925       1
   23904   23886   23898   23922       1   23901   23880   23898   23922       1
   23892   23877   23895   23919       1   23892   23907   23889   23910       1
   23892   23913   23931   23943       1   23889   23874   23886   23904       1
   23886   23874   23889   23910       1   23886   23898   23880   23901       1
   23883   23871   23880   23898       1   23883   23871   23880   23901       1
   23880   23898   23886   23904       1   23877   23868   23871   23883       1
   23877   23892   23907   23925       1   23877   23895   23916   23934       1
   23874   23868   23871   23883       1   23874   23886   23898   23922       1
   23874   23889   23907   23925       1   23871   23880   23898   23922       1
   23868   23871   23880   23901       1   23868   23874   23886   23904       1
   23868   23874   23889   23910       1   23868   23877   23895   23919       1
   24078   24066   24072   24081       1   24075   24063   24072   24081       1
   24069   24057   24066   24072       1   24069   24057   24066   24078       1
   24066   24072   24063   24075       1   24063   24072   24066   24078       1
   24060   24048   24054   24063       1   24057   24066   24072   24081       1
   24054   24045   24057   24069       1   24054   24063   24072   24081       1
   24051   24039   24048   24054       1   24051   24039   24048   24060       1
   24048   24054   24063   24075       1   24045   24054   24048   24060       1
   24045   24054   24063   24075       1   24045   24057   24066   24078       1
   24042   24024   24036   24045       1   24036   24021   24039   24051       1
   24036   24045   24057   24069       1   24027   24003   24024   24036       1
   24027   24003   24024   24042       1   24021   24000   24015   24033       1
   24021   24036   24024   24042       1   24021   24039   24048   24060       1
   24018   23997   24015   24033       1   24012   23994   24006   24030       1
   24009   23988   24006   24030       1   24000   23985   24003   24027       1
   24000   24015   23997   24018       1   24000   24021   24039   24051       1
   23997   23982   23994   24012       1   23994   23982   23997   24018       1
   23994   24006   23988   24009       1   23991   23979   23988   24006       1
   23991   23979   23988   24009       1   23988   24006   23994   24012       1
   23985   23976   23979   23991       1   23985   24000   24015   24033       1
   23985   24003   24024   24042       1   23982   23976   23979   23991       1
   23982   23994   24006   24030       1   23982   23997   24015   24033       1
   23979   23988   24006   24030       1   23976   23979   23988   24009       1
   23976   23982   23994   24012       1   23976   23982   23997   24018       1
   23976   23985   24003   24027       1   24186   24174   24180   24189       1
   24183   24171   24180   24189       1   24177   24165   24174   24180       1
   24177   24165   24174   24186       1   24174   24180   24171   24183       1
   24171   24180   24174   24186       1   24168   24156   24162   24171       1
   24165   24174   24180   24189       1   24162   24153   24165   24177       1
   24162   24171   24180   24189       1   24159   24147   24156   24162       1
   24159   24147   24156   24168       1   24156   24162   24171   24183       1
   24153   24162   24156   24168       1   24153   24162   24171   24183       1
   24153   24165   24174   24186       1   24150   24132   24144   24153       1
   24144   24129   24147   24159       1   24144   24153   24165   24177       1
   24135   24111   24132   24144       1   24135   24111   24132   24150       1
   24129   24108   24123   24141       1   24129   24144   24132   24150       1
   24129   24147   24156   24168       1   24126   24105   24123   24141       1
   24120   24102   24114   24138       1   24117   24096   24114   24138       1
   24108   24093   24111   24135       1   24108   24123   24105   24126       1
   24108   24129   24147   24159       1   24105   24090   24102   24120       1
   24102   24090   24105   24126       1   24102   24114   24096   24117       1
   24099   24087   24096   24114       1   24099   24087   24096   24117       1
   24096   24114   24102   24120       1   24093   24084   24087   24099       1
   24093   24108   24123   24141       1   24093   24111   24132   24150       1
   24090   24084   24087   24099       1   24090   24102   24114   24138       1
   24090   24105   24123   24141       1   24087   24096   24114   24138       1
   24084   24087   24096   24117       1   24084   24090   24102   24120       1
   24084   24090   24105   24126       1   24084   24093   24111   24135       1
   24294   24282   24288   24297       1   24291   24279   24288   24297       1
   24285   24273   24282   24288       1   24285   24273   24282   24294       1
   24282   24288   24279   24291       1   24279   24288   24282   24294       1
   24276   24264   24270   24279       1   24273   24282   24288   24297       1
   24270   24261   24273   24285       1   24270   24279   24288   24297       1
   24267   24255   24264   24270       1   24267   24255   24264   24276       1
   24264   24270   24279   24291       1   24261   24270   24264   24276       1
   24261   24270   24279   24291       1   24261   24273   24282   24294       1
   24258   24240   24252   24261       1   24252   24237   24255   24267       1
   24252   24261   24273   24285       1   24243   24219   24240   24252       1
   24243   24219   24240   24258       1   24237   24216   24231   24249       1
   24237   24252   24240   24258       1   24237   24255   24264   24276       1
   24234   24213   24231   24249       1   24228   24210   24222   24246       1
   24225   24204   24222   24246       1   24216   24201   24219   24243       1
   24216   24231   24213   24234       1   24216   24237   24255   24267       1
   24213   24198   24210   24228       1   24210   24198   24213   24234       1
   24210   24222   24204   24225       1   24207   24195   24204   24222       1
   24207   24195   24204   24225       1   24204   24222   24210   24228       1
   24201   24192   24195   24207       1   24201   24216   24231   24249       1
   24201   24219   24240   24258       1   24198   24192   24195   24207       1
   24198   24210   24222   24246       1   24198   24213   24231   24249       1
   24195   24204   24222   24246       1   24192   24195   24204   24225       1
   24192   24198   24210   24228       1   24192   24198   24213   24234       1
   24192   24201   24219   24243       1   24402   24390   24396   24405       1
   24399   24387   24396   24405       1   24393   24381   24390   24396       1
   24393   24381   24390   24402       1   24390   24396   24387   24399       1
   24387   24396   24390   24402       1   24384   24372   24378   24387       1
   24381   24390   24396   24405       1   24378   24369   24381   24393       1
   24378   24387   24396   24405       1   24375   24363   24372   24378       1
   24375   24363   24372   24384       1   24372   24378   24387   24399       1
   24369   24378   24372   24384       1   24369   24378   24387   24399       1
   24369   24381   24390   24402       1   24366   24348   24360   24369       1
   24360   24345   24363   24375       1   24360   24369   24381   24393       1
   24351   24327   24348   24360       1   24351   24327   24348   24366       1
   24345   24324   24339   24357       1   24345   24360   24348   24366       1
   24345   24363   24372   24384       1   24342   24321   24339   24357       1
   24336   24318   24330   24354       1   24333   24312   24330   24354       1
   24324   24309   24327   24351       1   24324   24339   24321   24342       1
   24324   24345   24363   24375       1   24321   24306   24318   24336       1
   24318   24306   24321   24342       1   24318   24330   24312   24333       1
   24315   24303   24312   24330       1   24315   24303   24312   24333       1
   24312   24330   24318   24336       1   24309   24300   24303   24315       1
   24309   24324   24339   24357       1   24309   24327   24348   24366       1
   24306   24300   24303   24315       1   24306   24318   24330   24354       1
   24306   24321   24339   24357       1   24303   24312   24330   24354       1
   24300   24303   24312   24333       1   24300   24306   24318   24336       1
   24300   24306   24321   24342       1   24300   24309   24327   24351       1
   24510   24498   24504   24513       1   24507   24495   24504   24513       1
   24501   24489   24498   24504       1   24501   24489   24498   24510       1
   24498   24504   24495   24507       1   24495   24504   24498   24510       1
   24492   24480   24486   24495       1   24489   24498   24504   24513       1
   24486   24477   24489   24501       1   24486   24495   24504   24513       1
   24483   24471   24480   24486       1   24483   24471   24480   24492       1
   24480   24486   24495   24507       1   24477   24486   24480   24492       1
   24477   24486   24495   24507       1   24477   24489   24498   24510       1
   24474   24456   24468   24477       1   24468   24453   24471   24483       1
   24468   24477   24489   24501       1   24459   24435   24456   24468       1
   24459   24435   24456   24474       1   24453   24432   24447   24465       1
   24453   24468   24456   24474       1   24453   24471   24480   24492       1
   24450   24429   24447   24465       1   24444   24426   24438   24462       1
   24441   24420   24438   24462       1   24432   24417   24435   24459       1
   24432   24447   24429   24450       1   24432   24453   24471   24483       1
   24429   24414   24426   24444       1   24426   24414   24429   24450       1
   24426   24438   24420   24441       1   24423   24411   24420   24438       1
   24423   24411   24420   24441       1   24420   24438   24426   24444       1
   24417   24408   24411   24423       1   24417   24432   24447   24465       1
   24417   24435   24456   24474       1   24414   24408   24411   24423       1
   24414   24426   24438   24462       1   24414   24429   24447   24465       1
   24411   24420   24438   24462       1   24408   24411   24420   24441       1
   24408   24414   24426   24444       1   24408   24414   24429   24450       1
   24408   24417   24435   24459       1   24618   24606   24612   24621       1
   24615   24603   24612   24621       1   24609   24597   24606   24612       1
   24609   24597   24606   24618       1   24606   24612   24603   24615       1
   24603   24612   24606   24618       1   24600   24588   24594   24603       1
   24597   24606   24612   24621       1   24594   24585   24597   24609       1
   24594   24603   24612   24621       1   24591   24579   24588   24594       1
   24591   24579   24588   24600       1   24588   24594   24603   24615       1
   24585   24594   24588   24600       1   24585   24594   24603   24615       1
   24585   24597   24606   24618       1   24582   24564   24576   24585       1
   24576   24561   24579   24591       1   24576   24585   24597   24609       1
   24567   24543   24564   24576       1   24567   24543   24564   24582       1
   24561   24540   24555   24573       1   24561   24576   24564   24582       1
   24561   24579   24588   24600       1   24558   24537   24555   24573       1
   24552   24534   24546   24570       1   24549   24528   24546   24570       1
   24540   24525   24543   24567       1   24540   24555   24537   24558       1
   24540   24561   24579   24591       1   24537   24522   24534   24552       1
   24534   24522   24537   24558       1   24534   24546   24528   24549       1
   24531   24519   24528   24546       1   24531   24519   24528   24549       1
   24528   24546   24534   24552       1   24525   24516   24519   24531       1
   24525   24540   24555   24573       1   24525   24543   24564   24582       1
   24522   24516   24519   24531       1   24522   24534   24546   24570       1
   24522   24537   24555   24573       1   24519   24528   24546   24570       1
   24516   24519   24528   24549       1   24516   24522   24534   24552       1
   24516   24522   24537   24558       1   24516   24525   24543   24567       1
   24726   24714   24720   24729       1   24723   24711   24720   24729       1
   24717   24705   24714   24720       1   24717   24705   24714   24726       1
   24714   24720   24711   24723       1   24711   24720   24714   24726       1
   24708   24696   24702   24711       1   24705   24714   24720   24729       1
   24702   24693   24705   24717       1   24702   24711   24720   24729       1
   24699   24687   24696   24702       1   24699   24687   24696   24708       1
   24696   24702   24711   24723       1   24693   24702   24696   24708       1
   24693   24702   24711   24723       1   24693   24705   24714   24726       1
   24690   24672   24684   24693       1   24684   24669   24687   24699       1
   24684   24693   24705   24717       1   24675   24651   24672   24684       1
   24675   24651   24672   24690       1   24669   24648   24663   24681       1
   24669   24684   24672   24690       1   24669   24687   24696   24708       1
   24666   24645   24663   24681       1   24660   24642   24654   24678       1
   24657   24636   24654   24678       1   24648   24633   24651   24675       1
   24648   24663   24645   24666       1   24648   24669   24687   24699       1
   24645   24630   24642   24660       1   24642   24630   24645   24666       1
   24642   24654   24636   24657       1   24639   24627   24636   24654       1
   24639   24627   24636   24657       1   24636   24654   24642   24660       1
   24633   24624   24627   24639       1   24633   24648   24663   24681       1
   24633   24651   24672   24690       1   24630   24624   24627   24639       1
   24630   24642   24654   24678       1   24630   24645   24663   24681       1
   24627   24636   24654   24678       1   24624   24627   24636   24657       1
   24624   24630   24642   24660       1   24624   24630   24645   24666       1
   24624   24633   24651   24675       1   24834   24822   24828   24837       1
   24831   24819   24828   24837       1   24825   24813   24822   24828       1
   24825   24813   24822   24834       1   24822   24828   24819   24831       1
   24819   24828   24822   24834       1   24816   24804   24810   24819       1
   24813   24822   24828   24837       1   24810   24801   24813   24825       1
   24810   24819   24828   24837       1   24807   24795   24804   24810       1
   24807   24795   24804   24816       1   24804   24810   24819   24831       1
   24801   24810   24804   24816       1   24801   24810   24819   24831       1
   24801   24813   24822   24834       1   24798   24780   24792   24801       1
   24792   24777   24795   24807       1   24792   24801   24813   24825       1
   24783   24759   24780   24792       1   24783   24759   24780   24798       1
   24777   24756   24771   24789       1   24777   24792   24780   24798       1
   24777   24795   24804   24816       1   24774   24753   24771   24789       1
   24768   24750   24762   24786       1   24765   24744   24762   24786       1
   24756   24741   24759   24783       1   24756   24771   24753   24774       1
   24756   24777   24795   24807       1   24753   24738   24750   24768       1
   24750   24738   24753   24774       1   24750   24762   24744   24765       1
   24747   24735   24744   24762       1   24747   24735   24744   24765       1
   24744   24762   24750   24768       1   24741   24732   24735   24747       1
   24741   24756   24771   24789       1   24741   24759   24780   24798       1
   24738   24732   24735   24747       1   24738   24750   24762   24786       1
   24738   24753   24771   24789       1   24735   24744   24762   24786       1
   24732   24735   24744   24765       1   24732   24738   24750   24768       1
   24732   24738   24753   24774       1   24732   24741   24759   24783       1
   24942   24930   24936   24945       1   24939   24927   24936   24945       1
   24933   24921   24930   24936       1   24933   24921   24930   24942       1
   24930   24936   24927   24939       1   24927   24936   24930   24942       1
   24924   24912   24918   24927       1   24921   24930   24936   24945       1
   24918   24909   24921   24933       1   24918   24927   24936   24945       1
   24915   24903   24912   24918       1   24915   24903   24912   24924       1
   24912   24918   24927   24939       1   24909   24918   24912   24924       1
   24909   24918   24927   24939       1   24909   24921   24930   24942       1
   24906   24888   24900   24909       1   24900   24885   24903   24915       1
   24900   24909   24921   24933       1   24891   24867   24888   24900       1
   24891   24867   24888   24906       1   24885   24864   24879   24897       1
   24885   24900   24888   24906       1   24885   24903   24912   24924       1
   24882   24861   24879   24897       1   24876   24858   24870   24894       1
   24873   24852   24870   24894       1   24864   24849   24867   24891       1
   24864   24879   24861   24882       1   24864   24885   24903   24915       1
   24861   24846   24858   24876       1   24858   24846   24861   24882       1
   24858   24870   24852   24873       1   24855   24843   24852   24870       1
   24855   24843   24852   24873       1   24852   24870   24858   24876       1
   24849   24840   24843   24855       1   24849   24864   24879   24897       1
   24849   24867   24888   24906       1   24846   24840   24843   24855       1
   24846   24858   24870   24894       1   24846   24861   24879   24897       1
   24843   24852   24870   24894       1   24840   24843   24852   24873       1
   24840   24846   24858   24876       1   24840   24846   24861   24882       1
   24840   24849   24867   24891       1   25050   25038   25044   25053       1
   25047   25035   25044   25053       1   25041   25029   25038   25044       1
   25041   25029   25038   25050       1   25038   25044   25035   25047       1
   25035   25044   25038   25050       1   25032   25020   25026   25035       1
   25029   25038   25044   25053       1   25026   25017   25029   25041       1
   25026   25035   25044   25053       1   25023   25011   25020   25026       1
   25023   25011   25020   25032       1   25020   25026   25035   25047       1
   25017   25026   25020   25032       1   25017   25026   25035   25047       1
   25017   25029   25038   25050       1   25014   24996   25008   25017       1
   25008   24993   25011   25023       1   25008   25017   25029   25041       1
   24999   24975   24996   25008       1   24999   24975   24996   25014       1
   24993   24972   24987   25005       1   24993   25008   24996   25014       1
   24993   25011   25020   25032       1   24990   24969   24987   25005       1
   24984   24966   24978   25002       1   24981   24960   24978   25002       1
   24972   24957   24975   24999       1   24972   24987   24969   24990       1
   24972   24993   25011   25023       1   24969   24954   24966   24984       1
   24966   24954   24969   24990       1   24966   24978   24960   24981       1
   24963   24951   24960   24978       1   24963   24951   24960   24981       1
   24960   24978   24966   24984       1   24957   24948   24951   24963       1
   24957   24972   24987   25005       1   24957   24975   24996   25014       1
   24954   24948   24951   24963       1   24954   24966   24978   25002       1
   24954   24969   24987   25005       1   24951   24960   24978   25002       1
   24948   24951   24960   24981       1   24948   24954   24966   24984       1
   24948   24954   24969   24990       1   24948   24957   24975   24999       1
   25158   25146   25152   25161       1   25155   25143   25152   25161       1
   25149   25137   25146   25152       1   25149   25137   25146   25158       1
   25146   25152   25143   25155       1   25143   25152   25146   25158       1
   25140   25128   25134   25143       1   25137   25146   25152   25161       1
   25134   25125   25137   25149       1   25134   25143   25152   25161       1
   25131   25119   25128   25134       1   25131   25119   25128   25140       1
   25128   25134   25143   25155       1   25125   25134   25128   25140       1
   25125   25134   25143   25155       1   25125   25137   25146   25158       1
   25122   25104   25116   25125       1   25116   25101   25119   25131       1
   25116   25125   25137   25149       1   25107   25083   25104   25116       1
   25107   25083   25104   25122       1   25101   25080   25095   25113       1
   25101   25116   25104   25122       1   25101   25119   25128   25140       1
   25098   25077   25095   25113       1   25092   25074   25086   25110       1
   25089   25068   25086   25110       1   25080   25065   25083   25107       1
   25080   25095   25077   25098       1   25080   25101   25119   25131       1
   25077   25062   25074   25092       1   25074   25062   25077   25098       1
   25074   25086   25068   25089       1   25071   25059   25068   25086       1
   25071   25059   25068   25089       1   25068   25086   25074   25092       1
   25065   25056   25059   25071       1   25065   25080   25095   25113       1
   25065   25083   25104   25122       1   25062   25056   25059   25071       1
   25062   25074   25086   25110       1   25062   25077   25095   25113       1
   25059   25068   25086   25110       1   25056   25059   25068   25089       1
   25056   25062   25074   25092       1   25056   25062   25077   25098       1
   25056   25065   25083   25107       1   25266   25254   25260   25269       1
   25263   25251   25260   25269       1   25257   25245   25254   25260       1
   25257   25245   25254   25266       1   25254   25260   25251   25263       1
   25251   25260   25254   25266       1   25248   25236   25242   25251       1
   25245   25254   25260   25269       1   25242   25233   25245   25257       1
   25242   25251   25260   25269       1   25239   25227   25236   25242       1
   25239   25227   25236   25248       1   25236   25242   25251   25263       1
   25233   25242   25236   25248       1   25233   25242   25251   25263       1
   25233   25245   25254   25266       1   25230   25212   25224   25233       1
   25224   25209   25227   25239       1   25224   25233   25245   25257       1
   25215   25191   25212   25224       1   25215   25191   25212   25230       1
   25209   25188   25203   25221       1   25209   25224   25212   25230       1
   25209   25227   25236   25248       1   25206   25185   25203   25221       1
   25200   25182   25194   25218       1   25197   25176   25194   25218       1
   25188   25173   25191   25215       1   25188   25203   25185   25206       1
   25188   25209   25227   25239       1   25185   25170   25182   25200       1
   25182   25170   25185   25206       1   25182   25194   25176   25197       1
   25179   25167   25176   25194       1   25179   25167   25176   25197       1
   25176   25194   25182   25200       1   25173   25164   25167   25179       1
   25173   25188   25203   25221       1   25173   25191   25212   25230       1
   25170   25164   25167   25179       1   25170   25182   25194   25218       1
   25170   25185   25203   25221       1   25167   25176   25194   25218       1
   25164   25167   25176   25197       1   25164   25170   25182   25200       1
   25164   25170   25185   25206       1   25164   25173   25191   25215       1
   25374   25362   25368   25377       1   25371   25359   25368   25377       1
   25365   25353   25362   25368       1   25365   25353   25362   25374       1
   25362   25368   25359   25371       1   25359   25368   25362   25374       1
   25356   25344   25350   25359       1   25353   25362   25368   25377       1
   25350   25341   25353   25365       1   25350   25359   25368   25377       1
   25347   25335   25344   25350       1   25347   25335   25344   25356       1
   25344   25350   25359   25371       1   25341   25350   25344   25356       1
   25341   25350   25359   25371       1   25341   25353   25362   25374       1
   25338   25320   25332   25341       1   25332   25317   25335   25347       1
   25332   25341   25353   25365       1   25323   25299   25320   25332       1
   25323   25299   25320   25338       1   25317   25296   25311   25329       1
   25317   25332   25320   25338       1   25317   25335   25344   25356       1
   25314   25293   25311   25329       1   25308   25290   25302   25326       1
   25305   25284   25302   25326       1   25296   25281   25299   25323       1
   25296   25311   25293   25314       1   25296   25317   25335   25347       1
   25293   25278   25290   25308       1   25290   25278   25293   25314       1
   25290   25302   25284   25305       1   25287   25275   25284   25302       1
   25287   25275   25284   25305       1   25284   25302   25290   25308       1
   25281   25272   25275   25287       1   25281   25296   25311   25329       1
   25281   25299   25320   25338       1   25278   25272   25275   25287       1
   25278   25290   25302   25326       1   25278   25293   25311   25329       1
   25275   25284   25302   25326       1   25272   25275   25284   25305       1
   25272   25278   25290   25308       1   25272   25278   25293   25314       1
   25272   25281   25299   25323       1   25482   25470   25476   25485       1
   25479   25467   25476   25485       1   25473   25461   25470   25476       1
   25473   25461   25470   25482       1   25470   25476   25467   25479       1
   25467   25476   25470   25482       1   25464   25452   25458   25467       1
   25461   25470   25476   25485       1   25458   25449   25461   25473       1
   25458   25467   25476   25485       1   25455   25443   25452   25458       1
   25455   25443   25452   25464       1   25452   25458   25467   25479       1
   25449   25458   25452   25464       1   25449   25458   25467   25479       1
   25449   25461   25470   25482       1   25446   25428   25440   25449       1
   25440   25425   25443   25455       1   25440   25449   25461   25473       1
   25431   25407   25428   25440       1   25431   25407   25428   25446       1
   25425   25404   25419   25437       1   25425   25440   25428   25446       1
   25425   25443   25452   25464       1   25422   25401   25419   25437       1
   25416   25398   25410   25434       1   25413   25392   25410   25434       1
   25404   25389   25407   25431       1   25404   25419   25401   25422       1
   25404   25425   25443   25455       1   25401   25386   25398   25416       1
   25398   25386   25401   25422       1   25398   25410   25392   25413       1
   25395   25383   25392   25410       1   25395   25383   25392   25413       1
   25392   25410   25398   25416       1   25389   25380   25383   25395       1
   25389   25404   25419   25437       1   25389   25407   25428   25446       1
   25386   25380   25383   25395       1   25386   25398   25410   25434       1
   25386   25401   25419   25437       1   25383   25392   25410   25434       1
   25380   25383   25392   25413       1   25380   25386   25398   25416       1
   25380   25386   25401   25422       1   25380   25389   25407   25431       1
   25590   25578   25584   25593       1   25587   25575   25584   25593       1
   25581   25569   25578   25584       1   25581   25569   25578   25590       1
   25578   25584   25575   25587       1   25575   25584   25578   25590       1
   25572   25560   25566   25575       1   25569   25578   25584   25593       1
   25566   25557   25569   25581       1   25566   25575   25584   25593       1
   25563   25551   25560   25566       1   25563   25551   25560   25572       1
   25560   25566   25575   25587       1   25557   25566   25560   25572       1
   25557   25566   25575   25587       1   25557   25569   25578   25590       1
   25554   25536   25548   25557       1   25548   25533   25551   25563       1
   25548   25557   25569   25581       1   25539   25515   25536   25548       1
   25539   25515   25536   25554       1   25533   25512   25527   25545       1
   25533   25548   25536   25554       1   25533   25551   25560   25572       1
   25530   25509   25527   25545       1   25524   25506   25518   25542       1
   25521   25500   25518   25542       1   25512   25497   25515   25539       1
   25512   25527   25509   25530       1   25512   25533   25551   25563       1
   25509   25494   25506   25524       1   25506   25494   25509   25530       1
   25506   25518   25500   25521       1   25503   25491   25500   25518       1
   25503   25491   25500   25521       1   25500   25518   25506   25524       1
   25497   25488   25491   25503       1   25497   25512   25527   25545       1
   25497   25515   25536   25554       1   25494   25488   25491   25503       1
   25494   25506   25518   25542       1   25494   25509   25527   25545       1
   25491   25500   25518   25542       1   25488   25491   25500   25521       1
   25488   25494   25506   25524       1   25488   25494   25509   25530       1
   25488   25497   25515   25539       1   25698   25686   25692   25701       1
   25695   25683   25692   25701       1   25689   25677   25686   25692       1
   25689   25677   25686   25698       1   25686   25692   25683   25695       1
   25683   25692   25686   25698       1   25680   25668   25674   25683       1
   25677   25686   25692   25701       1   25674   25665   25677   25689       1
   25674   25683   25692   25701       1   25671   25659   25668   25674       1
   25671   25659   25668   25680       1   25668   25674   25683   25695       1
   25665   25674   25668   25680       1   25665   25674   25683   25695       1
   25665   25677   25686   25698       1   25662   25644   25656   25665       1
   25656   25641   25659   25671       1   25656   25665   25677   25689       1
   25647   25623   25644   25656       1   25647   25623   25644   25662       1
   25641   25620   25635   25653       1   25641   25656   25644   25662       1
   25641   25659   25668   25680       1   25638   25617   25635   25653       1
   25632   25614   25626   25650       1   25629   25608   25626   25650       1
   25620   25605   25623   25647       1   25620   25635   25617   25638       1
   25620   25641   25659   25671       1   25617   25602   25614   25632       1
   25614   25602   25617   25638       1   25614   25626   25608   25629       1
   25611   25599   25608   25626       1   25611   25599   25608   25629       1
   25608   25626   25614   25632       1   25605   25596   25599   25611       1
   25605   25620   25635   25653       1   25605   25623   25644   25662       1
   25602   25596   25599   25611       1   25602   25614   25626   25650       1
   25602   25617   25635   25653       1   25599   25608   25626   25650       1
   25596   25599   25608   25629       1   25596   25602   25614   25632       1
   25596   25602   25617   25638       1   25596   25605   25623   25647       1
   25806   25794   25800   25809       1   25803   25791   25800   25809       1
   25797   25785   25794   25800       1   25797   25785   25794   25806       1
   25794   25800   25791   25803       1   25791   25800   25794   25806       1
   25788   25776   25782   25791       1   25785   25794   25800   25809       1
   25782   25773   25785   25797       1   25782   25791   25800   25809       1
   25779   25767   25776   25782       1   25779   25767   25776   25788       1
   25776   25782   25791   25803       1   25773   25782   25776   25788       1
   25773   25782   25791   25803       1   25773   25785   25794   25806       1
   25770   25752   25764   25773       1   25764   25749   25767   25779       1
   25764   25773   25785   25797       1   25755   25731   25752   25764       1
   25755   25731   25752   25770       1   25749   25728   25743   25761       1
   25749   25764   25752   25770       1   25749   25767   25776   25788       1
   25746   25725   25743   25761       1   25740   25722   25734   25758       1
   25737   25716   25734   25758       1   25728   25713   25731   25755       1
   25728   25743   25725   25746       1   25728   25749   25767   25779       1
   25725   25710   25722   25740       1   25722   25710   25725   25746       1
   25722   25734   25716   25737       1   25719   25707   25716   25734       1
   25719   25707   25716   25737       1   25716   25734   25722   25740       1
   25713   25704   25707   25719       1   25713   25728   25743   25761       1
   25713   25731   25752   25770       1   25710   25704   25707   25719       1
   25710   25722   25734   25758       1   25710   25725   25743   25761       1
   25707   25716   25734   25758       1   25704   25707   25716   25737       1
   25704   25710   25722   25740       1   25704   25710   25725   25746       1
   25704   25713   25731   25755       1   25914   25902   25908   25917       1
   25911   25899   25908   25917       1   25905   25893   25902   25908       1
   25905   25893   25902   25914       1   25902   25908   25899   25911       1
   25899   25908   25902   25914       1   25896   25884   25890   25899       1
   25893   25902   25908   25917       1   25890   25881   25893   25905       1
   25890   25899   25908   25917       1   25887   25875   25884   25890       1
   25887   25875   25884   25896       1   25884   25890   25899   25911       1
   25881   25890   25884   25896       1   25881   25890   25899   25911       1
   25881   25893   25902   25914       1   25878   25860   25872   25881       1
   25872   25857   25875   25887       1   25872   25881   25893   25905       1
   25863   25839   25860   25872       1   25863   25839   25860   25878       1
   25857   25836   25851   25869       1   25857   25872   25860   25878       1
   25857   25875   25884   25896       1   25854   25833   25851   25869       1
   25848   25830   25842   25866       1   25845   25824   25842   25866       1
   25836   25821   25839   25863       1   25836   25851   25833   25854       1
   25836   25857   25875   25887       1   25833   25818   25830   25848       1
   25830   25818   25833   25854       1   25830   25842   25824   25845       1
   25827   25815   25824   25842       1   25827   25815   25824   25845       1
   25824   25842   25830   25848       1   25821   25812   25815   25827       1
   25821   25836   25851   25869       1   25821   25839   25860   25878       1
   25818   25812   25815   25827       1   25818   25830   25842   25866       1
   25818   25833   25851   25869       1   25815   25824   25842   25866       1
   25812   25815   25824   25845       1   25812   25818   25830   25848       1
   25812   25818   25833   25854       1   25812   25821   25839   25863       1
   26022   26010   26016   26025       1   26019   26007   26016   26025       1
   26013   26001   26010   26016       1   26013   26001   26010   26022       1
   26010   26016   26007   26019       1   26007   26016   26010   26022       1
   26004   25992   25998   26007       1   26001   26010   26016   26025       1
   25998   25989   26001   26013       1   25998   26007   26016   26025       1
   25995   25983   25992   25998       1   25995   25983   25992   26004       1
   25992   25998   26007   26019       1   25989   25998   25992   26004       1
   25989   25998   26007   26019       1   25989   26001   26010   26022       1
   25986   25968   25980   25989       1   25980   25965   25983   25995       1
   25980   25989   26001   26013       1   25971   25947   25968   25980       1
   25971   25947   25968   25986       1   25965   25944   25959   25977       1
   25965   25980   25968   25986       1   25965   25983   25992   26004       1
   25962   25941   25959   25977       1   25956   25938   25950   25974       1
   25953   25932   25950   25974       1   25944   25929   25947   25971       1
   25944   25959   25941   25962       1   25944   25965   25983   25995       1
   25941   25926   25938   25956       1   25938   25926   25941   25962       1
   25938   25950   25932   25953       1   25935   25923   25932   25950       1
   25935   25923   25932   25953       1   25932   25950   25938   25956       1
   25929   25920   25923   25935       1   25929   25944   25959   25977       1
   25929   25947   25968   25986       1   25926   25920   25923   25935       1
   25926   25938   25950   25974       1   25926   25941   25959   25977       1
   25923   25932   25950   25974       1   25920   25923   25932   25953       1
   25920   25926   25938   25956       1   25920   25926   25941   25962       1
   25920   25929   25947   25971       1   26130   26118   26124   26133       1
   26127   26115   26124   26133       1   26121   26109   26118   26124       1
   26121   26109   26118   26130       1   26118   26124   26115   26127       1
   26115   26124   26118   26130       1   26112   26100   26106   26115       1
   26109   26118   26124   26133       1   26106   26097   26109   26121       1
   26106   26115   26124   26133       1   26103   26091   26100   26106       1
   26103   26091   26100   26112       1   26100   26106   26115   26127       1
   26097   26106   26100   26112       1   26097   26106   26115   26127       1
   26097   26109   26118   26130       1   26094   26076   26088   26097       1
   26088   26073   26091   26103       1   26088   26097   26109   26121       1
   26079   26055   26076   26088       1   26079   26055   26076   26094       1
   26073   26052   26067   26085       1   26073   26088   26076   26094       1
   26073   26091   26100   26112       1   26070   26049   26067   26085       1
   26064   26046   26058   26082       1   26061   26040   26058   26082       1
   26052   26037   26055   26079       1   26052   26067   26049   26070       1
   26052   26073   26091   26103       1   26049   26034   26046   26064       1
   26046   26034   26049   26070       1   26046   26058   26040   26061       1
   26043   26031   26040   26058       1   26043   26031   26040   26061       1
   26040   26058   26046   26064       1   26037   26028   26031   26043       1
   26037   26052   26067   26085       1   26037   26055   26076   26094       1
   26034   26028   26031   26043       1   26034   26046   26058   26082       1
   26034   26049   26067   26085       1   26031   26040   26058   26082       1
   26028   26031   26040   26061       1   26028   26034   26046   26064       1
   26028   26034   26049   26070       1   26028   26037   26055   26079       1
   26238   26226   26232   26241       1   26235   26223   26232   26241       1
   26229   26217   26226   26232       1   26229   26217   26226   26238       1
   26226   26232   26223   26235       1   26223   26232   26226   26238       1
   26220   26208   26214   26223       1   26217   26226   26232   26241       1
   26214   26205   26217   26229       1   26214   26223   26232   26241       1
   26211   26199   26208   26214       1   26211   26199   26208   26220       1
   26208   26214   26223   26235       1   26205   26214   26208   26220       1
   26205   26214   26223   26235       1   26205   26217   26226   26238       1
   26202   26184   26196   26205       1   26196   26181   26199   26211       1
   26196   26205   26217   26229       1   26187   26163   26184   26196       1
   26187   26163   26184   26202       1   26181   26160   26175   26193       1
   26181   26196   26184   26202       1   26181   26199   26208   26220       1
   26178   26157   26175   26193       1   26172   26154   26166   26190       1
   26169   26148   26166   26190       1   26160   26145   26163   26187       1
   26160   26175   26157   26178       1   26160   26181   26199   26211       1
   26157   26142   26154   26172       1   26154   26142   26157   26178       1
   26154   26166   26148   26169       1   26151   26139   26148   26166       1
   26151   26139   26148   26169       1   26148   26166   26154   26172       1
   26145   26136   26139   26151       1   26145   26160   26175   26193       1
   26145   26163   26184   26202       1   26142   26136   26139   26151       1
   26142   26154   26166   26190       1   26142   26157   26175   26193       1
   26139   26148   26166   26190       1   26136   26139   26148   26169       1
   26136   26142   26154   26172       1   26136   26142   26157   26178       1
   26136   26145   26163   26187       1   26346   26334   26340   26349       1
   26343   26331   26340   26349       1   26337   26325   26334   26340       1
   26337   26325   26334   26346       1   26334   26340   26331   26343       1
   26331   26340   26334   26346       1   26328   26316   26322   26331       1
   26325   26334   26340   26349       1   26322   26313   26325   26337       1
   26322   26331   26340   26349       1   26319   26307   26316   26322       1
   26319   26307   26316   26328       1   26316   26322   26331   26343       1
   26313   26322   26316   26328       1   26313   26322   26331   26343       1
   26313   26325   26334   26346       1   26310   26292   26304   26313       1
   26304   26289   26307   26319       1   26304   26313   26325   26337       1
   26295   26271   26292   26304       1   26295   26271   26292   26310       1
   26289   26268   26283   26301       1   26289   26304   26292   26310       1
   26289   26307   26316   26328       1   26286   26265   26283   26301       1
   26280   26262   26274   26298       1   26277   26256   26274   26298       1
   26268   26253   26271   26295       1   26268   26283   26265   26286       1
   26268   26289   26307   26319       1   26265   26250   26262   26280       1
   26262   26250   26265   26286       1   26262   26274   26256   26277       1
   26259   26247   26256   26274       1   26259   26247   26256   26277       1
   26256   26274   26262   26280       1   26253   26244   26247   26259       1
   26253   26268   26283   26301       1   26253   26271   26292   26310       1
   26250   26244   26247   26259       1   26250   26262   26274   26298       1
   26250   26265   26283   26301       1   26247   26256   26274   26298       1
   26244   26247   26256   26277       1   26244   26250   26262   26280       1
   26244   26250   26265   26286       1   26244   26253   26271   26295       1
   26454   26442   26448   26457       1   26451   26439   26448   26457       1
   26445   26433   26442   26448       1   26445   26433   26442   26454       1
   26442   26448   26439   26451       1   26439   26448   26442   26454       1
   26436   26424   26430   26439       1   26433   26442   26448   26457       1
   26430   26421   26433   26445       1   26430   26439   26448   26457       1
   26427   26415   26424   26430       1   26427   26415   26424   26436       1
   26424   26430   26439   26451       1   26421   26430   26424   26436       1
   26421   26430   26439   26451       1   26421   26433   26442   26454       1
   26418   26400   26412   26421       1   26412   26397   26415   26427       1
   26412   26421   26433   26445       1   26403   26379   26400   26412       1
   26403   26379   26400   26418       1   26397   26376   26391   26409       1
   26397   26412   26400   26418       1   26397   26415   26424   26436       1
   26394   26373   26391   26409       1   26388   26370   26382   26406       1
   26385   26364   26382   26406       1   26376   26361   26379   26403       1
   26376   26391   26373   26394       1   26376   26397   26415   26427       1
   26373   26358   26370   26388       1   26370   26358   26373   26394       1
   26370   26382   26364   26385       1   26367   26355   26364   26382       1
   26367   26355   26364   26385       1   26364   26382   26370   26388       1
   26361   26352   26355   26367       1   26361   26376   26391   26409       1
   26361   26379   26400   26418       1   26358   26352   26355   26367       1
   26358   26370   26382   26406       1   26358   26373   26391   26409       1
   26355   26364   26382   26406       1   26352   26355   26364   26385       1
   26352   26358   26370   26388       1   26352   26358   26373   26394       1
   26352   26361   26379   26403       1   26562   26550   26556   26565       1
   26559   26547   26556   26565       1   26553   26541   26550   26556       1
   26553   26541   26550   26562       1   26550   26556   26547   26559       1
   26547   26556   26550   26562       1   26544   26532   26538   26547       1
   26541   26550   26556   26565       1   26538   26529   26541   26553       1
   26538   26547   26556   26565       1   26535   26523   26532   26538       1
   26535   26523   26532   26544       1   26532   26538   26547   26559       1
   26529   26538   26532   26544       1   26529   26538   26547   26559       1
   26529   26541   26550   26562       1   26526   26508   26520   26529       1
   26520   26505   26523   26535       1   26520   26529   26541   26553       1
   26511   26487   26508   26520       1   26511   26487   26508   26526       1
   26505   26484   26499   26517       1   26505   26520   26508   26526       1
   26505   26523   26532   26544       1   26502   26481   26499   26517       1
   26496   26478   26490   26514       1   26493   26472   26490   26514       1
   26484   26469   26487   26511       1   26484   26499   26481   26502       1
   26484   26505   26523   26535       1   26481   26466   26478   26496       1
   26478   26466   26481   26502       1   26478   26490   26472   26493       1
   26475   26463   26472   26490       1   26475   26463   26472   26493       1
   26472   26490   26478   26496       1   26469   26460   26463   26475       1
   26469   26484   26499   26517       1   26469   26487   26508   26526       1
   26466   26460   26463   26475       1   26466   26478   26490   26514       1
   26466   26481   26499   26517       1   26463   26472   26490   26514       1
   26460   26463   26472   26493       1   26460   26466   26478   26496       1
   26460   26466   26481   26502       1   26460   26469   26487   26511       1
   26670   26658   26664   26673       1   26667   26655   26664   26673       1
   26661   26649   26658   26664       1   26661   26649   26658   26670       1
   26658   26664   26655   26667       1   26655   26664   26658   26670       1
   26652   26640   26646   26655       1   26649   26658   26664   26673       1
   26646   26637   26649   26661       1   26646   26655   26664   26673       1
   26643   26631   26640   26646       1   26643   26631   26640   26652       1
   26640   26646   26655   26667       1   26637   26646   26640   26652       1
   26637   26646   26655   26667       1   26637   26649   26658   26670       1
   26634   26616   26628   26637       1   26628   26613   26631   26643       1
   26628   26637   26649   26661       1   26619   26595   26616   26628       1
   26619   26595   26616   26634       1   26613   26592   26607   26625       1
   26613   26628   26616   26634       1   26613   26631   26640   26652       1
   26610   26589   26607   26625       1   26604   26586   26598   26622       1
   26601   26580   26598   26622       1   26592   26577   26595   26619       1
   26592   26607   26589   26610       1   26592   26613   26631   26643       1
   26589   26574   26586   26604       1   26586   26574   26589   26610       1
   26586   26598   26580   26601       1   26583   26571   26580   26598       1
   26583   26571   26580   26601       1   26580   26598   26586   26604       1
   26577   26568   26571   26583       1   26577   26592   26607   26625       1
   26577   26595   26616   26634       1   26574   26568   26571   26583       1
   26574   26586   26598   26622       1   26574   26589   26607   26625       1
   26571   26580   26598   26622       1   26568   26571   26580   26601       1
   26568   26574   26586   26604       1   26568   26574   26589   26610       1
   26568   26577   26595   26619       1   26778   26766   26772   26781       1
   26775   26763   26772   26781       1   26769   26757   26766   26772       1
   26769   26757   26766   26778       1   26766   26772   26763   26775       1
   26763   26772   26766   26778       1   26760   26748   26754   26763       1
   26757   26766   26772   26781       1   26754   26745   26757   26769       1
   26754   26763   26772   26781       1   26751   26739   26748   26754       1
   26751   26739   26748   26760       1   26748   26754   26763   26775       1
   26745   26754   26748   26760       1   26745   26754   26763   26775       1
   26745   26757   26766   26778       1   26742   26724   26736   26745       1
   26736   26721   26739   26751       1   26736   26745   26757   26769       1
   26727   26703   26724   26736       1   26727   26703   26724   26742       1
   26721   26700   26715   26733       1   26721   26736   26724   26742       1
   26721   26739   26748   26760       1   26718   26697   26715   26733       1
   26712   26694   26706   26730       1   26709   26688   26706   26730       1
   26700   26685   26703   26727       1   26700   26715   26697   26718       1
   26700   26721   26739   26751       1   26697   26682   26694   26712       1
   26694   26682   26697   26718       1   26694   26706   26688   26709       1
   26691   26679   26688   26706       1   26691   26679   26688   26709       1
   26688   26706   26694   26712       1   26685   26676   26679   26691       1
   26685   26700   26715   26733       1   26685   26703   26724   26742       1
   26682   26676   26679   26691       1   26682   26694   26706   26730       1
   26682   26697   26715   26733       1   26679   26688   26706   26730       1
   26676   26679   26688   26709       1   26676   26682   26694   26712       1
   26676   26682   26697   26718       1   26676   26685   26703   26727       1
   26886   26874   26880   26889       1   26883   26871   26880   26889       1
   26877   26865   26874   26880       1   26877   26865   26874   26886       1
   26874   26880   26871   26883       1   26871   26880   26874   26886       1
   26868   26856   26862   26871       1   26865   26874   26880   26889       1
   26862   26853   26865   26877       1   26862   26871   26880   26889       1
   26859   26847   26856   26862       1   26859   26847   26856   26868       1
   26856   26862   26871   26883       1   26853   26862   26856   26868       1
   26853   26862   26871   26883       1   26853   26865   26874   26886       1
   26850   26832   26844   26853       1   26844   26829   26847   26859       1
   26844   26853   26865   26877       1   26835   26811   26832   26844       1
   26835   26811   26832   26850       1   26829   26808   26823   26841       1
   26829   26844   26832   26850       1   26829   26847   26856   26868       1
   26826   26805   26823   26841       1   26820   26802   26814   26838       1
   26817   26796   26814   26838       1   26808   26793   26811   26835       1
   26808   26823   26805   26826       1   26808   26829   26847   26859       1
   26805   26790   26802   26820       1   26802   26790   26805   26826       1
   26802   26814   26796   26817       1   26799   26787   26796   26814       1
   26799   26787   26796   26817       1   26796   26814   26802   26820       1
   26793   26784   26787   26799       1   26793   26808   26823   26841       1
   26793   26811   26832   26850       1   26790   26784   26787   26799       1
   26790   26802   26814   26838       1   26790   26805   26823   26841       1
   26787   26796   26814   26838       1   26784   26787   26796   26817       1
   26784   26790   26802   26820       1   26784   26790   26805   26826       1
   26784   26793   26811   26835       1   26994   26982   26988   26997       1
   26991   26979   26988   26997       1   26985   26973   26982   26988       1
   26985   26973   26982   26994       1   26982   26988   26979   26991       1
   26979   26988   26982   26994       1   26976   26964   26970   26979       1
   26973   26982   26988   26997       1   26970   26961   26973   26985       1
   26970   26979   26988   26997       1   26967   26955   26964   26970       1
   26967   26955   26964   26976       1   26964   26970   26979   26991       1
   26961   26970   26964   26976       1   26961   26970   26979   26991       1
   26961   26973   26982   26994       1   26958   26940   26952   26961       1
   26952   26937   26955   26967       1   26952   26961   26973   26985       1
   26943   26919   26940   26952       1   26943   26919   26940   26958       1
   26937   26916   26931   26949       1   26937   26952   26940   26958       1
   26937   26955   26964   26976       1   26934   26913   26931   26949       1
   26928   26910   26922   26946       1   26925   26904   26922   26946       1
   26916   26901   26919   26943       1   26916   26931   26913   26934       1
   26916   26937   26955   26967       1   26913   26898   26910   26928       1
   26910   26898   26913   26934       1   26910   26922   26904   26925       1
   26907   26895   26904   26922       1   26907   26895   26904   26925       1
   26904   26922   26910   26928       1   26901   26892   26895   26907       1
   26901   26916   26931   26949       1   26901   26919   26940   26958       1
   26898   26892   26895   26907       1   26898   26910   26922   26946       1
   26898   26913   26931   26949       1   26895   26904   26922   26946       1
   26892   26895   26904   26925       1   26892   26898   26910   26928       1
   26892   26898   26913   26934       1   26892   26901   26919   26943       1
   27102   27090   27096   27105       1   27099   27087   27096   27105       1
   27093   27081   27090   27096       1   27093   27081   27090   27102       1
   27090   27096   27087   27099       1   27087   27096   27090   27102       1
   27084   27072   27078   27087       1   27081   27090   27096   27105       1
   27078   27069   27081   27093       1   27078   27087   27096   27105       1
   27075   27063   27072   27078       1   27075   27063   27072   27084       1
   27072   27078   27087   27099       1   27069   27078   27072   27084       1
   27069   27078   27087   27099       1   27069   27081   27090   27102       1
   27066   27048   27060   27069       1   27060   27045   27063   27075       1
   27060   27069   27081   27093       1   27051   27027   27048   27060       1
   27051   27027   27048   27066       1   27045   27024   27039   27057       1
   27045   27060   27048   27066       1   27045   27063   27072   27084       1
   27042   27021   27039   27057       1   27036   27018   27030   27054       1
   27033   27012   27030   27054       1   27024   27009   27027   27051       1
   27024   27039   27021   27042       1   27024   27045   27063   27075       1
   27021   27006   27018   27036       1   27018   27006   27021   27042       1
   27018   27030   27012   27033       1   27015   27003   27012   27030       1
   27015   27003   27012   27033       1   27012   27030   27018   27036       1
   27009   27000   27003   27015       1   27009   27024   27039   27057       1
   27009   27027   27048   27066       1   27006   27000   27003   27015       1
   27006   27018   27030   27054       1   27006   27021   27039   27057       1
   27003   27012   27030   27054       1   27000   27003   27012   27033       1
   27000   27006   27018   27036       1   27000   27006   27021   27042       1
   27000   27009   27027   27051       1   27210   27198   27204   27213       1
   27207   27195   27204   27213       1   27201   27189   27198   27204       1
   27201   27189   27198   27210       1   27198   27204   27195   27207       1
   27195   27204   27198   27210       1   27192   27180   27186   27195       1
   27189   27198   27204   27213       1   27186   27177   27189   27201       1
   27186   27195   27204   27213       1   27183   27171   27180   27186       1
   27183   27171   27180   27192       1   27180   27186   27195   27207       1
   27177   27186   27180   27192       1   27177   27186   27195   27207       1
   27177   27189   27198   27210       1   27174   27156   27168   27177       1
   27168   27153   27171   27183       1   27168   27177   27189   27201       1
   27159   27135   27156   27168       1   27159   27135   27156   27174       1
   27153   27132   27147   27165       1   27153   27168   27156   27174       1
   27153   27171   27180   27192       1   27150   27129   27147   27165       1
   27144   27126   27138   27162       1   27141   27120   27138   27162       1
   27132   27117   27135   27159       1   27132   27147   27129   27150       1
   27132   27153   27171   27183       1   27129   27114   27126   27144       1
   27126   27114   27129   27150       1   27126   27138   27120   27141       1
   27123   27111   27120   27138       1   27123   27111   27120   27141       1
   27120   27138   27126   27144       1   27117   27108   27111   27123       1
   27117   27132   27147   27165       1   27117   27135   27156   27174       1
   27114   27108   27111   27123       1   27114   27126   27138   27162       1
   27114   27129   27147   27165       1   27111   27120   27138   27162       1
   27108   27111   27120   27141       1   27108   27114   27126   27144       1
   27108   27114   27129   27150       1   27108   27117   27135   27159       1
   27318   27306   27312   27321       1   27315   27303   27312   27321       1
   27309   27297   27306   27312       1   27309   27297   27306   27318       1
   27306   27312   27303   27315       1   27303   27312   27306   27318       1
   27300   27288   27294   27303       1   27297   27306   27312   27321       1
   27294   27285   27297   27309       1   27294   27303   27312   27321       1
   27291   27279   27288   27294       1   27291   27279   27288   27300       1
   27288   27294   27303   27315       1   27285   27294   27288   27300       1
   27285   27294   27303   27315       1   27285   27297   27306   27318       1
   27282   27264   27276   27285       1   27276   27261   27279   27291       1
   27276   27285   27297   27309       1   27267   27243   27264   27276       1
   27267   27243   27264   27282       1   27261   27240   27255   27273       1
   27261   27276   27264   27282       1   27261   27279   27288   27300       1
   27258   27237   27255   27273       1   27252   27234   27246   27270       1
   27249   27228   27246   27270       1   27240   27225   27243   27267       1
   27240   27255   27237   27258       1   27240   27261   27279   27291       1
   27237   27222   27234   27252       1   27234   27222   27237   27258       1
   27234   27246   27228   27249       1   27231   27219   27228   27246       1
   27231   27219   27228   27249       1   27228   27246   27234   27252       1
   27225   27216   27219   27231       1   27225   27240   27255   27273       1
   27225   27243   27264   27282       1   27222   27216   27219   27231       1
   27222   27234   27246   27270       1   27222   27237   27255   27273       1
   27219   27228   27246   27270       1   27216   27219   27228   27249       1
   27216   27222   27234   27252       1   27216   27222   27237   27258       1
   27216   27225   27243   27267       1   27426   27414   27420   27429       1
   27423   27411   27420   27429       1   27417   27405   27414   27420       1
   27417   27405   27414   27426       1   27414   27420   27411   27423       1
   27411   27420   27414   27426       1   27408   27396   27402   27411       1
   27405   27414   27420   27429       1   27402   27393   27405   27417       1
   27402   27411   27420   27429       1   27399   27387   27396   27402       1
   27399   27387   27396   27408       1   27396   27402   27411   27423       1
   27393   27402   27396   27408       1   27393   27402   27411   27423       1
   27393   27405   27414   27426       1   27390   27372   27384   27393       1
   27384   27369   27387   27399       1   27384   27393   27405   27417       1
   27375   27351   27372   27384       1   27375   27351   27372   27390       1
   27369   27348   27363   27381       1   27369   27384   27372   27390       1
   27369   27387   27396   27408       1   27366   27345   27363   27381       1
   27360   27342   27354   27378       1   27357   27336   27354   27378       1
   27348   27333   27351   27375       1   27348   27363   27345   27366       1
   27348   27369   27387   27399       1   27345   27330   27342   27360       1
   27342   27330   27345   27366       1   27342   27354   27336   27357       1
   27339   27327   27336   27354       1   27339   27327   27336   27357       1
   27336   27354   27342   27360       1   27333   27324   27327   27339       1
   27333   27348   27363   27381       1   27333   27351   27372   27390       1
   27330   27324   27327   27339       1   27330   27342   27354   27378       1
   27330   27345   27363   27381       1   27327   27336   27354   27378       1
   27324   27327   27336   27357       1   27324   27330   27342   27360       1
   27324   27330   27345   27366       1   27324   27333   27351   27375       1
   27534   27522   27528   27537       1   27531   27519   27528   27537       1
   27525   27513   27522   27528       1   27525   27513   27522   27534       1
   27522   27528   27519   27531       1   27519   27528   27522   27534       1
   27516   27504   27510   27519       1   27513   27522   27528   27537       1
   27510   27501   27513   27525       1   27510   27519   27528   27537       1
   27507   27495   27504   27510       1   27507   27495   27504   27516       1
   27504   27510   27519   27531       1   27501   27510   27504   27516       1
   27501   27510   27519   27531       1   27501   27513   27522   27534       1
   27498   27480   27492   27501       1   27492   27477   27495   27507       1
   27492   27501   27513   27525       1   27483   27459   27480   27492       1
   27483   27459   27480   27498       1   27477   27456   27471   27489       1
   27477   27492   27480   27498       1   27477   27495   27504   27516       1
   27474   27453   27471   27489       1   27468   27450   27462   27486       1
   27465   27444   27462   27486       1   27456   27441   27459   27483       1
   27456   27471   27453   27474       1   27456   27477   27495   27507       1
   27453   27438   27450   27468       1   27450   27438   27453   27474       1
   27450   27462   27444   27465       1   27447   27435   27444   27462       1
   27447   27435   27444   27465       1   27444   27462   27450   27468       1
   27441   27432   27435   27447       1   27441   27456   27471   27489       1
   27441   27459   27480   27498       1   27438   27432   27435   27447       1
   27438   27450   27462   27486       1   27438   27453   27471   27489       1
   27435   27444   27462   27486       1   27432   27435   27444   27465       1
   27432   27438   27450   27468       1   27432   27438   27453   27474       1
   27432   27441   27459   27483       1   27642   27630   27636   27645       1
   27639   27627   27636   27645       1   27633   27621   27630   27636       1
   27633   27621   27630   27642       1   27630   27636   27627   27639       1
   27627   27636   27630   27642       1   27624   27612   27618   27627       1
   27621   27630   27636   27645       1   27618   27609   27621   27633       1
   27618   27627   27636   27645       1   27615   27603   27612   27618       1
   27615   27603   27612   27624       1   27612   27618   27627   27639       1
   27609   27618   27612   27624       1   27609   27618   27627   27639       1
   27609   27621   27630   27642       1   27606   27588   27600   27609       1
   27600   27585   27603   27615       1   27600   27609   27621   27633       1
   27591   27567   27588   27600       1   27591   27567   27588   27606       1
   27585   27564   27579   27597       1   27585   27600   27588   27606       1
   27585   27603   27612   27624       1   27582   27561   27579   27597       1
   27576   27558   27570   27594       1   27573   27552   27570   27594       1
   27564   27549   27567   27591       1   27564   27579   27561   27582       1
   27564   27585   27603   27615       1   27561   27546   27558   27576       1
   27558   27546   27561   27582       1   27558   27570   27552   27573       1
   27555   27543   27552   27570       1   27555   27543   27552   27573       1
   27552   27570   27558   27576       1   27549   27540   27543   27555       1
   27549   27564   27579   27597       1   27549   27567   27588   27606       1
   27546   27540   27543   27555       1   27546   27558   27570   27594       1
   27546   27561   27579   27597       1   27543   27552   27570   27594       1
   27540   27543   27552   27573       1   27540   27546   27558   27576       1
   27540   27546   27561   27582       1   27540   27549   27567   27591       1
   27750   27738   27744   27753       1   27747   27735   27744   27753       1
   27741   27729   27738   27744       1   27741   27729   27738   27750       1
   27738   27744   27735   27747       1   27735   27744   27738   27750       1
   27732   27720   27726   27735       1   27729   27738   27744   27753       1
   27726   27717   27729   27741       1   27726   27735   27744   27753       1
   27723   27711   27720   27726       1   27723   27711   27720   27732       1
   27720   27726   27735   27747       1   27717   27726   27720   27732       1
   27717   27726   27735   27747       1   27717   27729   27738   27750       1
   27714   27696   27708   27717       1   27708   27693   27711   27723       1
   27708   27717   27729   27741       1   27699   27675   27696   27708       1
   27699   27675   27696   27714       1   27693   27672   27687   27705       1
   27693   27708   27696   27714       1   27693   27711   27720   27732       1
   27690   27669   27687   27705       1   27684   27666   27678   27702       1
   27681   27660   27678   27702       1   27672   27657   27675   27699       1
   27672   27687   27669   27690       1   27672   27693   27711   27723       1
   27669   27654   27666   27684       1   27666   27654   27669   27690       1
   27666   27678   27660   27681       1   27663   27651   27660   27678       1
   27663   27651   27660   27681       1   27660   27678   27666   27684       1
   27657   27648   27651   27663       1   27657   27672   27687   27705       1
   27657   27675   27696   27714       1   27654   27648   27651   27663       1
   27654   27666   27678   27702       1   27654   27669   27687   27705       1
   27651   27660   27678   27702       1   27648   27651   27660   27681       1
   27648   27654   27666   27684       1   27648   27654   27669   27690       1
   27648   27657   27675   27699       1   27858   27846   27852   27861       1
   27855   27843   27852   27861       1   27849   27837   27846   27852       1
   27849   27837   27846   27858       1   27846   27852   27843   27855       1
   27843   27852   27846   27858       1   27840   27828   27834   27843       1
   27837   27846   27852   27861       1   27834   27825   27837   27849       1
   27834   27843   27852   27861       1   27831   27819   27828   27834       1
   27831   27819   27828   27840       1   27828   27834   27843   27855       1
   27825   27834   27828   27840       1   27825   27834   27843   27855       1
   27825   27837   27846   27858       1   27822   27804   27816   27825       1
   27816   27801   27819   27831       1   27816   27825   27837   27849       1
   27807   27783   27804   27816       1   27807   27783   27804   27822       1
   27801   27780   27795   27813       1   27801   27816   27804   27822       1
   27801   27819   27828   27840       1   27798   27777   27795   27813       1
   27792   27774   27786   27810       1   27789   27768   27786   27810       1
   27780   27765   27783   27807       1   27780   27795   27777   27798       1
   27780   27801   27819   27831       1   27777   27762   27774   27792       1
   27774   27762   27777   27798       1   27774   27786   27768   27789       1
   27771   27759   27768   27786       1   27771   27759   27768   27789       1
   27768   27786   27774   27792       1   27765   27756   27759   27771       1
   27765   27780   27795   27813       1   27765   27783   27804   27822       1
   27762   27756   27759   27771       1   27762   27774   27786   27810       1
   27762   27777   27795   27813       1   27759   27768   27786   27810       1
   27756   27759   27768   27789       1   27756   27762   27774   27792       1
   27756   27762   27777   27798       1   27756   27765   27783   27807       1
   27966   27954   27960   27969       1   27963   27951   27960   27969       1
   27957   27945   27954   27960       1   27957   27945   27954   27966       1
   27954   27960   27951   27963       1   27951   27960   27954   27966       1
   27948   27936   27942   27951       1   27945   27954   27960   27969       1
   27942   27933   27945   27957       1   27942   27951   27960   27969       1
   27939   27927   27936   27942       1   27939   27927   27936   27948       1
   27936   27942   27951   27963       1   27933   27942   27936   27948       1
   27933   27942   27951   27963       1   27933   27945   27954   27966       1
   27930   27912   27924   27933       1   27924   27909   27927   27939       1
   27924   27933   27945   27957       1   27915   27891   27912   27924       1
   27915   27891   27912   27930       1   27909   27888   27903   27921       1
   27909   27924   27912   27930       1   27909   27927   27936   27948       1
   27906   27885   27903   27921       1   27900   27882   27894   27918       1
   27897   27876   27894   27918       1   27888   27873   27891   27915       1
   27888   27903   27885   27906       1   27888   27909   27927   27939       1
   27885   27870   27882   27900       1   27882   27870   27885   27906       1
   27882   27894   27876   27897       1   27879   27867   27876   27894       1
   27879   27867   27876   27897       1   27876   27894   27882   27900       1
   27873   27864   27867   27879       1   27873   27888   27903   27921       1
   27873   27891   27912   27930       1   27870   27864   27867   27879       1
   27870   27882   27894   27918       1   27870   27885   27903   27921       1
   27867   27876   27894   27918       1   27864   27867   27876   27897       1
   27864   27870   27882   27900       1   27864   27870   27885   27906       1
   27864   27873   27891   27915       1   28074   28062   28068   28077       1
   28071   28059   28068   28077       1   28065   28053   28062   28068       1
   28065   28053   28062   28074       1   28062   28068   28059   28071       1
   28059   28068   28062   28074       1   28056   28044   28050   28059       1
   28053   28062   28068   28077       1   28050   28041   28053   28065       1
   28050   28059   28068   28077       1   28047   28035   28044   28050       1
   28047   28035   28044   28056       1   28044   28050   28059   28071       1
   28041   28050   28044   28056       1   28041   28050   28059   28071       1
   28041   28053   28062   28074       1   28038   28020   28032   28041       1
   28032   28017   28035   28047       1   28032   28041   28053   28065       1
   28023   27999   28020   28032       1   28023   27999   28020   28038       1
   28017   27996   28011   28029       1   28017   28032   28020   28038       1
   28017   28035   28044   28056       1   28014   27993   28011   28029       1
   28008   27990   28002   28026       1   28005   27984   28002   28026       1
   27996   27981   27999   28023       1   27996   28011   27993   28014       1
   27996   28017   28035   28047       1   27993   27978   27990   28008       1
   27990   27978   27993   28014       1   27990   28002   27984   28005       1
   27987   27975   27984   28002       1   27987   27975   27984   28005       1
   27984   28002   27990   28008       1   27981   27972   27975   27987       1
   27981   27996   28011   28029       1   27981   27999   28020   28038       1
   27978   27972   27975   27987       1   27978   27990   28002   28026       1
   27978   27993   28011   28029       1   27975   27984   28002   28026       1
   27972   27975   27984   28005       1   27972   27978   27990   28008       1
   27972   27978   27993   28014       1   27972   27981   27999   28023       1
   28182   28170   28176   28185       1   28179   28167   28176   28185       1
   28173   28161   28170   28176       1   28173   28161   28170   28182       1
   28170   28176   28167   28179       1   28167   28176   28170   28182       1
   28164   28152   28158   28167       1   28161   28170   28176   28185       1
   28158   28149   28161   28173       1   28158   28167   28176   28185       1
   28155   28143   28152   28158       1   28155   28143   28152   28164       1
   28152   28158   28167   28179       1   28149   28158   28152   28164       1
   28149   28158   28167   28179       1   28149   28161   28170   28182       1
   28146   28128   28140   28149       1   28140   28125   28143   28155       1
   28140   28149   28161   28173       1   28131   28107   28128   28140       1
   28131   28107   28128   28146       1   28125   28104   28119   28137       1
   28125   28140   28128   28146       1   28125   28143   28152   28164       1
   28122   28101   28119   28137       1   28116   28098   28110   28134       1
   28113   28092   28110   28134       1   28104   28089   28107   28131       1
   28104   28119   28101   28122       1   28104   28125   28143   28155       1
   28101   28086   28098   28116       1   28098   28086   28101   28122       1
   28098   28110   28092   28113       1   28095   28083   28092   28110       1
   28095   28083   28092   28113       1   28092   28110   28098   28116       1
   28089   28080   28083   28095       1   28089   28104   28119   28137       1
   28089   28107   28128   28146       1   28086   28080   28083   28095       1
   28086   28098   28110   28134       1   28086   28101   28119   28137       1
   28083   28092   28110   28134       1   28080   28083   28092   28113       1
   28080   28086   28098   28116       1   28080   28086   28101   28122       1
   28080   28089   28107   28131       1   28290   28278   28284   28293       1
   28287   28275   28284   28293       1   28281   28269   28278   28284       1
   28281   28269   28278   28290       1   28278   28284   28275   28287       1
   28275   28284   28278   28290       1   28272   28260   28266   28275       1
   28269   28278   28284   28293       1   28266   28257   28269   28281       1
   28266   28275   28284   28293       1   28263   28251   28260   28266       1
   28263   28251   28260   28272       1   28260   28266   28275   28287       1
   28257   28266   28260   28272       1   28257   28266   28275   28287       1
   28257   28269   28278   28290       1   28254   28236   28248   28257       1
   28248   28233   28251   28263       1   28248   28257   28269   28281       1
   28239   28215   28236   28248       1   28239   28215   28236   28254       1
   28233   28212   28227   28245       1   28233   28248   28236   28254       1
   28233   28251   28260   28272       1   28230   28209   28227   28245       1
   28224   28206   28218   28242       1   28221   28200   28218   28242       1
   28212   28197   28215   28239       1   28212   28227   28209   28230       1
   28212   28233   28251   28263       1   28209   28194   28206   28224       1
   28206   28194   28209   28230       1   28206   28218   28200   28221       1
   28203   28191   28200   28218       1   28203   28191   28200   28221       1
   28200   28218   28206   28224       1   28197   28188   28191   28203       1
   28197   28212   28227   28245       1   28197   28215   28236   28254       1
   28194   28188   28191   28203       1   28194   28206   28218   28242       1
   28194   28209   28227   28245       1   28191   28200   28218   28242       1
   28188   28191   28200   28221       1   28188   28194   28206   28224       1
   28188   28194   28209   28230       1   28188   28197   28215   28239       1
   28398   28386   28392   28401       1   28395   28383   28392   28401       1
   28389   28377   28386   28392       1   28389   28377   28386   28398       1
   28386   28392   28383   28395       1   28383   28392   28386   28398       1
   28380   28368   28374   28383       1   28377   28386   28392   28401       1
   28374   28365   28377   28389       1   28374   28383   28392   28401       1
   28371   28359   28368   28374       1   28371   28359   28368   28380       1
   28368   28374   28383   28395       1   28365   28374   28368   28380       1
   28365   28374   28383   28395       1   28365   28377   28386   28398       1
   28362   28344   28356   28365       1   28356   28341   28359   28371       1
   28356   28365   28377   28389       1   28347   28323   28344   28356       1
   28347   28323   28344   28362       1   28341   28320   28335   28353       1
   28341   28356   28344   28362       1   28341   28359   28368   28380       1
   28338   28317   28335   28353       1   28332   28314   28326   28350       1
   28329   28308   28326   28350       1   28320   28305   28323   28347       1
   28320   28335   28317   28338       1   28320   28341   28359   28371       1
   28317   28302   28314   28332       1   28314   28302   28317   28338       1
   28314   28326   28308   28329       1   28311   28299   28308   28326       1
   28311   28299   28308   28329       1   28308   28326   28314   28332       1
   28305   28296   28299   28311       1   28305   28320   28335   28353       1
   28305   28323   28344   28362       1   28302   28296   28299   28311       1
   28302   28314   28326   28350       1   28302   28317   28335   28353       1
   28299   28308   28326   28350       1   28296   28299   28308   28329       1
   28296   28302   28314   28332       1   28296   28302   28317   28338       1
   28296   28305   28323   28347       1   28506   28494   28500   28509       1
   28503   28491   28500   28509       1   28497   28485   28494   28500       1
   28497   28485   28494   28506       1   28494   28500   28491   28503       1
   28491   28500   28494   28506       1   28488   28476   28482   28491       1
   28485   28494   28500   28509       1   28482   28473   28485   28497       1
   28482   28491   28500   28509       1   28479   28467   28476   28482       1
   28479   28467   28476   28488       1   28476   28482   28491   28503       1
   28473   28482   28476   28488       1   28473   28482   28491   28503       1
   28473   28485   28494   28506       1   28470   28452   28464   28473       1
   28464   28449   28467   28479       1   28464   28473   28485   28497       1
   28455   28431   28452   28464       1   28455   28431   28452   28470       1
   28449   28428   28443   28461       1   28449   28464   28452   28470       1
   28449   28467   28476   28488       1   28446   28425   28443   28461       1
   28440   28422   28434   28458       1   28437   28416   28434   28458       1
   28428   28413   28431   28455       1   28428   28443   28425   28446       1
   28428   28449   28467   28479       1   28425   28410   28422   28440       1
   28422   28410   28425   28446       1   28422   28434   28416   28437       1
   28419   28407   28416   28434       1   28419   28407   28416   28437       1
   28416   28434   28422   28440       1   28413   28404   28407   28419       1
   28413   28428   28443   28461       1   28413   28431   28452   28470       1
   28410   28404   28407   28419       1   28410   28422   28434   28458       1
   28410   28425   28443   28461       1   28407   28416   28434   28458       1
   28404   28407   28416   28437       1   28404   28410   28422   28440       1
   28404   28410   28425   28446       1   28404   28413   28431   28455       1
   28614   28602   28608   28617       1   28611   28599   28608   28617       1
   28605   28593   28602   28608       1   28605   28593   28602   28614       1
   28602   28608   28599   28611       1   28599   28608   28602   28614       1
   28596   28584   28590   28599       1   28593   28602   28608   28617       1
   28590   28581   28593   28605       1   28590   28599   28608   28617       1
   28587   28575   28584   28590       1   28587   28575   28584   28596       1
   28584   28590   28599   28611       1   28581   28590   28584   28596       1
   28581   28590   28599   28611       1   28581   28593   28602   28614       1
   28578   28560   28572   28581       1   28572   28557   28575   28587       1
   28572   28581   28593   28605       1   28563   28539   28560   28572       1
   28563   28539   28560   28578       1   28557   28536   28551   28569       1
   28557   28572   28560   28578       1   28557   28575   28584   28596       1
   28554   28533   28551   28569       1   28548   28530   28542   28566       1
   28545   28524   28542   28566       1   28536   28521   28539   28563       1
   28536   28551   28533   28554       1   28536   28557   28575   28587       1
   28533   28518   28530   28548       1   28530   28518   28533   28554       1
   28530   28542   28524   28545       1   28527   28515   28524   28542       1
   28527   28515   28524   28545       1   28524   28542   28530   28548       1
   28521   28512   28515   28527       1   28521   28536   28551   28569       1
   28521   28539   28560   28578       1   28518   28512   28515   28527       1
   28518   28530   28542   28566       1   28518   28533   28551   28569       1
   28515   28524   28542   28566       1   28512   28515   28524   28545       1
   28512   28518   28530   28548       1   28512   28518   28533   28554       1
   28512   28521   28539   28563       1   28722   28710   28716   28725       1
   28719   28707   28716   28725       1   28713   28701   28710   28716       1
   28713   28701   28710   28722       1   28710   28716   28707   28719       1
   28707   28716   28710   28722       1   28704   28692   28698   28707       1
   28701   28710   28716   28725       1   28698   28689   28701   28713       1
   28698   28707   28716   28725       1   28695   28683   28692   28698       1
   28695   28683   28692   28704       1   28692   28698   28707   28719       1
   28689   28698   28692   28704       1   28689   28698   28707   28719       1
   28689   28701   28710   28722       1   28686   28668   28680   28689       1
   28680   28665   28683   28695       1   28680   28689   28701   28713       1
   28671   28647   28668   28680       1   28671   28647   28668   28686       1
   28665   28644   28659   28677       1   28665   28680   28668   28686       1
   28665   28683   28692   28704       1   28662   28641   28659   28677       1
   28656   28638   28650   28674       1   28653   28632   28650   28674       1
   28644   28629   28647   28671       1   28644   28659   28641   28662       1
   28644   28665   28683   28695       1   28641   28626   28638   28656       1
   28638   28626   28641   28662       1   28638   28650   28632   28653       1
   28635   28623   28632   28650       1   28635   28623   28632   28653       1
   28632   28650   28638   28656       1   28629   28620   28623   28635       1
   28629   28644   28659   28677       1   28629   28647   28668   28686       1
   28626   28620   28623   28635       1   28626   28638   28650   28674       1
   28626   28641   28659   28677       1   28623   28632   28650   28674       1
   28620   28623   28632   28653       1   28620   28626   28638   28656       1
   28620   28626   28641   28662       1   28620   28629   28647   28671       1
   28830   28818   28824   28833       1   28827   28815   28824   28833       1
   28821   28809   28818   28824       1   28821   28809   28818   28830       1
   28818   28824   28815   28827       1   28815   28824   28818   28830       1
   28812   28800   28806   28815       1   28809   28818   28824   28833       1
   28806   28797   28809   28821       1   28806   28815   28824   28833       1
   28803   28791   28800   28806       1   28803   28791   28800   28812       1
   28800   28806   28815   28827       1   28797   28806   28800   28812       1
   28797   28806   28815   28827       1   28797   28809   28818   28830       1
   28794   28776   28788   28797       1   28788   28773   28791   28803       1
   28788   28797   28809   28821       1   28779   28755   28776   28788       1
   28779   28755   28776   28794       1   28773   28752   28767   28785       1
   28773   28788   28776   28794       1   28773   28791   28800   28812       1
   28770   28749   28767   28785       1   28764   28746   28758   28782       1
   28761   28740   28758   28782       1   28752   28737   28755   28779       1
   28752   28767   28749   28770       1   28752   28773   28791   28803       1
   28749   28734   28746   28764       1   28746   28734   28749   28770       1
   28746   28758   28740   28761       1   28743   28731   28740   28758       1
   28743   28731   28740   28761       1   28740   28758   28746   28764       1
   28737   28728   28731   28743       1   28737   28752   28767   28785       1
   28737   28755   28776   28794       1   28734   28728   28731   28743       1
   28734   28746   28758   28782       1   28734   28749   28767   28785       1
   28731   28740   28758   28782       1   28728   28731   28740   28761       1
   28728   28734   28746   28764       1   28728   28734   28749   28770       1
   28728   28737   28755   28779       1   28938   28926   28932   28941       1
   28935   28923   28932   28941       1   28929   28917   28926   28932       1
   28929   28917   28926   28938       1   28926   28932   28923   28935       1
   28923   28932   28926   28938       1   28920   28908   28914   28923       1
   28917   28926   28932   28941       1   28914   28905   28917   28929       1
   28914   28923   28932   28941       1   28911   28899   28908   28914       1
   28911   28899   28908   28920       1   28908   28914   28923   28935       1
   28905   28914   28908   28920       1   28905   28914   28923   28935       1
   28905   28917   28926   28938       1   28902   28884   28896   28905       1
   28896   28881   28899   28911       1   28896   28905   28917   28929       1
   28887   28863   28884   28896       1   28887   28863   28884   28902       1
   28881   28860   28875   28893       1   28881   28896   28884   28902       1
   28881   28899   28908   28920       1   28878   28857   28875   28893       1
   28872   28854   28866   28890       1   28869   28848   28866   28890       1
   28860   28845   28863   28887       1   28860   28875   28857   28878       1
   28860   28881   28899   28911       1   28857   28842   28854   28872       1
   28854   28842   28857   28878       1   28854   28866   28848   28869       1
   28851   28839   28848   28866       1   28851   28839   28848   28869       1
   28848   28866   28854   28872       1   28845   28836   28839   28851       1
   28845   28860   28875   28893       1   28845   28863   28884   28902       1
   28842   28836   28839   28851       1   28842   28854   28866   28890       1
   28842   28857   28875   28893       1   28839   28848   28866   28890       1
   28836   28839   28848   28869       1   28836   28842   28854   28872       1
   28836   28842   28857   28878       1   28836   28845   28863   28887       1
   29046   29034   29040   29049       1   29043   29031   29040   29049       1
   29037   29025   29034   29040       1   29037   29025   29034   29046       1
   29034   29040   29031   29043       1   29031   29040   29034   29046       1
   29028   29016   29022   29031       1   29025   29034   29040   29049       1
   29022   29013   29025   29037       1   29022   29031   29040   29049       1
   29019   29007   29016   29022       1   29019   29007   29016   29028       1
   29016   29022   29031   29043       1   29013   29022   29016   29028       1
   29013   29022   29031   29043       1   29013   29025   29034   29046       1
   29010   28992   29004   29013       1   29004   28989   29007   29019       1
   29004   29013   29025   29037       1   28995   28971   28992   29004       1
   28995   28971   28992   29010       1   28989   28968   28983   29001       1
   28989   29004   28992   29010       1   28989   29007   29016   29028       1
   28986   28965   28983   29001       1   28980   28962   28974   28998       1
   28977   28956   28974   28998       1   28968   28953   28971   28995       1
   28968   28983   28965   28986       1   28968   28989   29007   29019       1
   28965   28950   28962   28980       1   28962   28950   28965   28986       1
   28962   28974   28956   28977       1   28959   28947   28956   28974       1
   28959   28947   28956   28977       1   28956   28974   28962   28980       1
   28953   28944   28947   28959       1   28953   28968   28983   29001       1
   28953   28971   28992   29010       1   28950   28944   28947   28959       1
   28950   28962   28974   28998       1   28950   28965   28983   29001       1
   28947   28956   28974   28998       1   28944   28947   28956   28977       1
   28944   28950   28962   28980       1   28944   28950   28965   28986       1
   28944   28953   28971   28995       1   29154   29142   29148   29157       1
   29151   29139   29148   29157       1   29145   29133   29142   29148       1
   29145   29133   29142   29154       1   29142   29148   29139   29151       1
   29139   29148   29142   29154       1   29136   29124   29130   29139       1
   29133   29142   29148   29157       1   29130   29121   29133   29145       1
   29130   29139   29148   29157       1   29127   29115   29124   29130       1
   29127   29115   29124   29136       1   29124   29130   29139   29151       1
   29121   29130   29124   29136       1   29121   29130   29139   29151       1
   29121   29133   29142   29154       1   29118   29100   29112   29121       1
   29112   29097   29115   29127       1   29112   29121   29133   29145       1
   29103   29079   29100   29112       1   29103   29079   29100   29118       1
   29097   29076   29091   29109       1   29097   29112   29100   29118       1
   29097   29115   29124   29136       1   29094   29073   29091   29109       1
   29088   29070   29082   29106       1   29085   29064   29082   29106       1
   29076   29061   29079   29103       1   29076   29091   29073   29094       1
   29076   29097   29115   29127       1   29073   29058   29070   29088       1
   29070   29058   29073   29094       1   29070   29082   29064   29085       1
   29067   29055   29064   29082       1   29067   29055   29064   29085       1
   29064   29082   29070   29088       1   29061   29052   29055   29067       1
   29061   29076   29091   29109       1   29061   29079   29100   29118       1
   29058   29052   29055   29067       1   29058   29070   29082   29106       1
   29058   29073   29091   29109       1   29055   29064   29082   29106       1
   29052   29055   29064   29085       1   29052   29058   29070   29088       1
   29052   29058   29073   29094       1   29052   29061   29079   29103       1
   29262   29250   29256   29265       1   29259   29247   29256   29265       1
   29253   29241   29250   29256       1   29253   29241   29250   29262       1
   29250   29256   29247   29259       1   29247   29256   29250   29262       1
   29244   29232   29238   29247       1   29241   29250   29256   29265       1
   29238   29229   29241   29253       1   29238   29247   29256   29265       1
   29235   29223   29232   29238       1   29235   29223   29232   29244       1
   29232   29238   29247   29259       1   29229   29238   29232   29244       1
   29229   29238   29247   29259       1   29229   29241   29250   29262       1
   29226   29208   29220   29229       1   29220   29205   29223   29235       1
   29220   29229   29241   29253       1   29211   29187   29208   29220       1
   29211   29187   29208   29226       1   29205   29184   29199   29217       1
   29205   29220   29208   29226       1   29205   29223   29232   29244       1
   29202   29181   29199   29217       1   29196   29178   29190   29214       1
   29193   29172   29190   29214       1   29184   29169   29187   29211       1
   29184   29199   29181   29202       1   29184   29205   29223   29235       1
   29181   29166   29178   29196       1   29178   29166   29181   29202       1
   29178   29190   29172   29193       1   29175   29163   29172   29190       1
   29175   29163   29172   29193       1   29172   29190   29178   29196       1
   29169   29160   29163   29175       1   29169   29184   29199   29217       1
   29169   29187   29208   29226       1   29166   29160   29163   29175       1
   29166   29178   29190   29214       1   29166   29181   29199   29217       1
   29163   29172   29190   29214       1   29160   29163   29172   29193       1
   29160   29166   29178   29196       1   29160   29166   29181   29202       1
   29160   29169   29187   29211       1   29370   29358   29364   29373       1
   29367   29355   29364   29373       1   29361   29349   29358   29364       1
   29361   29349   29358   29370       1   29358   29364   29355   29367       1
   29355   29364   29358   29370       1   29352   29340   29346   29355       1
   29349   29358   29364   29373       1   29346   29337   29349   29361       1
   29346   29355   29364   29373       1   29343   29331   29340   29346       1
   29343   29331   29340   29352       1   29340   29346   29355   29367       1
   29337   29346   29340   29352       1   29337   29346   29355   29367       1
   29337   29349   29358   29370       1   29334   29316   29328   29337       1
   29328   29313   29331   29343       1   29328   29337   29349   29361       1
   29319   29295   29316   29328       1   29319   29295   29316   29334       1
   29313   29292   29307   29325       1   29313   29328   29316   29334       1
   29313   29331   29340   29352       1   29310   29289   29307   29325       1
   29304   29286   29298   29322       1   29301   29280   29298   29322       1
   29292   29277   29295   29319       1   29292   29307   29289   29310       1
   29292   29313   29331   29343       1   29289   29274   29286   29304       1
   29286   29274   29289   29310       1   29286   29298   29280   29301       1
   29283   29271   29280   29298       1   29283   29271   29280   29301       1
   29280   29298   29286   29304       1   29277   29268   29271   29283       1
   29277   29292   29307   29325       1   29277   29295   29316   29334       1
   29274   29268   29271   29283       1   29274   29286   29298   29322       1
   29274   29289   29307   29325       1   29271   29280   29298   29322       1
   29268   29271   29280   29301       1   29268   29274   29286   29304       1
   29268   29274   29289   29310       1   29268   29277   29295   29319       1
   29478   29466   29472   29481       1   29475   29463   29472   29481       1
   29469   29457   29466   29472       1   29469   29457   29466   29478       1
   29466   29472   29463   29475       1   29463   29472   29466   29478       1
   29460   29448   29454   29463       1   29457   29466   29472   29481       1
   29454   29445   29457   29469       1   29454   29463   29472   29481       1
   29451   29439   29448   29454       1   29451   29439   29448   29460       1
   29448   29454   29463   29475       1   29445   29454   29448   29460       1
   29445   29454   29463   29475       1   29445   29457   29466   29478       1
   29442   29424   29436   29445       1   29436   29421   29439   29451       1
   29436   29445   29457   29469       1   29427   29403   29424   29436       1
   29427   29403   29424   29442       1   29421   29400   29415   29433       1
   29421   29436   29424   29442       1   29421   29439   29448   29460       1
   29418   29397   29415   29433       1   29412   29394   29406   29430       1
   29409   29388   29406   29430       1   29400   29385   29403   29427       1
   29400   29415   29397   29418       1   29400   29421   29439   29451       1
   29397   29382   29394   29412       1   29394   29382   29397   29418       1
   29394   29406   29388   29409       1   29391   29379   29388   29406       1
   29391   29379   29388   29409       1   29388   29406   29394   29412       1
   29385   29376   29379   29391       1   29385   29400   29415   29433       1
   29385   29403   29424   29442       1   29382   29376   29379   29391       1
   29382   29394   29406   29430       1   29382   29397   29415   29433       1
   29379   29388   29406   29430       1   29376   29379   29388   29409       1
   29376   29382   29394   29412       1   29376   29382   29397   29418       1
   29376   29385   29403   29427       1   29586   29574   29580   29589       1
   29583   29571   29580   29589       1   29577   29565   29574   29580       1
   29577   29565   29574   29586       1   29574   29580   29571   29583       1
   29571   29580   29574   29586       1   29568   29556   29562   29571       1
   29565   29574   29580   29589       1   29562   29553   29565   29577       1
   29562   29571   29580   29589       1   29559   29547   29556   29562       1
   29559   29547   29556   29568       1   29556   29562   29571   29583       1
   29553   29562   29556   29568       1   29553   29562   29571   29583       1
   29553   29565   29574   29586       1   29550   29532   29544   29553       1
   29544   29529   29547   29559       1   29544   29553   29565   29577       1
   29535   29511   29532   29544       1   29535   29511   29532   29550       1
   29529   29508   29523   29541       1   29529   29544   29532   29550       1
   29529   29547   29556   29568       1   29526   29505   29523   29541       1
   29520   29502   29514   29538       1   29517   29496   29514   29538       1
   29508   29493   29511   29535       1   29508   29523   29505   29526       1
   29508   29529   29547   29559       1   29505   29490   29502   29520       1
   29502   29490   29505   29526       1   29502   29514   29496   29517       1
   29499   29487   29496   29514       1   29499   29487   29496   29517       1
   29496   29514   29502   29520       1   29493   29484   29487   29499       1
   29493   29508   29523   29541       1   29493   29511   29532   29550       1
   29490   29484   29487   29499       1   29490   29502   29514   29538       1
   29490   29505   29523   29541       1   29487   29496   29514   29538       1
   29484   29487   29496   29517       1   29484   29490   29502   29520       1
   29484   29490   29505   29526       1   29484   29493   29511   29535       1
   29694   29682   29688   29697       1   29691   29679   29688   29697       1
   29685   29673   29682   29688       1   29685   29673   29682   29694       1
   29682   29688   29679   29691       1   29679   29688   29682   29694       1
   29676   29664   29670   29679       1   29673   29682   29688   29697       1
   29670   29661   29673   29685       1   29670   29679   29688   29697       1
   29667   29655   29664   29670       1   29667   29655   29664   29676       1
   29664   29670   29679   29691       1   29661   29670   29664   29676       1
   29661   29670   29679   29691       1   29661   29673   29682   29694       1
   29658   29640   29652   29661       1   29652   29637   29655   29667       1
   29652   29661   29673   29685       1   29643   29619   29640   29652       1
   29643   29619   29640   29658       1   29637   29616   29631   29649       1
   29637   29652   29640   29658       1   29637   29655   29664   29676       1
   29634   29613   29631   29649       1   29628   29610   29622   29646       1
   29625   29604   29622   29646       1   29616   29601   29619   29643       1
   29616   29631   29613   29634       1   29616   29637   29655   29667       1
   29613   29598   29610   29628       1   29610   29598   29613   29634       1
   29610   29622   29604   29625       1   29607   29595   29604   29622       1
   29607   29595   29604   29625       1   29604   29622   29610   29628       1
   29601   29592   29595   29607       1   29601   29616   29631   29649       1
   29601   29619   29640   29658       1   29598   29592   29595   29607       1
   29598   29610   29622   29646       1   29598   29613   29631   29649       1
   29595   29604   29622   29646       1   29592   29595   29604   29625       1
   29592   29598   29610   29628       1   29592   29598   29613   29634       1
   29592   29601   29619   29643       1   29802   29790   29796   29805       1
   29799   29787   29796   29805       1   29793   29781   29790   29796       1
   29793   29781   29790   29802       1   29790   29796   29787   29799       1
   29787   29796   29790   29802       1   29784   29772   29778   29787       1
   29781   29790   29796   29805       1   29778   29769   29781   29793       1
   29778   29787   29796   29805       1   29775   29763   29772   29778       1
   29775   29763   29772   29784       1   29772   29778   29787   29799       1
   29769   29778   29772   29784       1   29769   29778   29787   29799       1
   29769   29781   29790   29802       1   29766   29748   29760   29769       1
   29760   29745   29763   29775       1   29760   29769   29781   29793       1
   29751   29727   29748   29760       1   29751   29727   29748   29766       1
   29745   29724   29739   29757       1   29745   29760   29748   29766       1
   29745   29763   29772   29784       1   29742   29721   29739   29757       1
   29736   29718   29730   29754       1   29733   29712   29730   29754       1
   29724   29709   29727   29751       1   29724   29739   29721   29742       1
   29724   29745   29763   29775       1   29721   29706   29718   29736       1
   29718   29706   29721   29742       1   29718   29730   29712   29733       1
   29715   29703   29712   29730       1   29715   29703   29712   29733       1
   29712   29730   29718   29736       1   29709   29700   29703   29715       1
   29709   29724   29739   29757       1   29709   29727   29748   29766       1
   29706   29700   29703   29715       1   29706   29718   29730   29754       1
   29706   29721   29739   29757       1   29703   29712   29730   29754       1
   29700   29703   29712   29733       1   29700   29706   29718   29736       1
   29700   29706   29721   29742       1   29700   29709   29727   29751       1
   29910   29898   29904   29913       1   29907   29895   29904   29913       1
   29901   29889   29898   29904       1   29901   29889   29898   29910       1
   29898   29904   29895   29907       1   29895   29904   29898   29910       1
   29892   29880   29886   29895       1   29889   29898   29904   29913       1
   29886   29877   29889   29901       1   29886   29895   29904   29913       1
   29883   29871   29880   29886       1   29883   29871   29880   29892       1
   29880   29886   29895   29907       1   29877   29886   29880   29892       1
   29877   29886   29895   29907       1   29877   29889   29898   29910       1
   29874   29856   29868   29877       1   29868   29853   29871   29883       1
   29868   29877   29889   29901       1   29859   29835   29856   29868       1
   29859   29835   29856   29874       1   29853   29832   29847   29865       1
   29853   29868   29856   29874       1   29853   29871   29880   29892       1
   29850   29829   29847   29865       1   29844   29826   29838   29862       1
   29841   29820   29838   29862       1   29832   29817   29835   29859       1
   29832   29847   29829   29850       1   29832   29853   29871   29883       1
   29829   29814   29826   29844       1   29826   29814   29829   29850       1
   29826   29838   29820   29841       1   29823   29811   29820   29838       1
   29823   29811   29820   29841       1   29820   29838   29826   29844       1
   29817   29808   29811   29823       1   29817   29832   29847   29865       1
   29817   29835   29856   29874       1   29814   29808   29811   29823       1
   29814   29826   29838   29862       1   29814   29829   29847   29865       1
   29811   29820   29838   29862       1   29808   29811   29820   29841       1
   29808   29814   29826   29844       1   29808   29814   29829   29850       1
   29808   29817   29835   29859       1   30018   30006   30012   30021       1
   30015   30003   30012   30021       1   30009   29997   30006   30012       1
   30009   29997   30006   30018       1   30006   30012   30003   30015       1
   30003   30012   30006   30018       1   30000   29988   29994   30003       1
   29997   30006   30012   30021       1   29994   29985   29997   30009       1
   29994   30003   30012   30021       1   29991   29979   29988   29994       1
   29991   29979   29988   30000       1   29988   29994   30003   30015       1
   29985   29994   29988   30000       1   29985   29994   30003   30015       1
   29985   29997   30006   30018       1   29982   29964   29976   29985       1
   29976   29961   29979   29991       1   29976   29985   29997   30009       1
   29967   29943   29964   29976       1   29967   29943   29964   29982       1
   29961   29940   29955   29973       1   29961   29976   29964   29982       1
   29961   29979   29988   30000       1   29958   29937   29955   29973       1
   29952   29934   29946   29970       1   29949   29928   29946   29970       1
   29940   29925   29943   29967       1   29940   29955   29937   29958       1
   29940   29961   29979   29991       1   29937   29922   29934   29952       1
   29934   29922   29937   29958       1   29934   29946   29928   29949       1
   29931   29919   29928   29946       1   29931   29919   29928   29949       1
   29928   29946   29934   29952       1   29925   29916   29919   29931       1
   29925   29940   29955   29973       1   29925   29943   29964   29982       1
   29922   29916   29919   29931       1   29922   29934   29946   29970       1
   29922   29937   29955   29973       1   29919   29928   29946   29970       1
   29916   29919   29928   29949       1   29916   29922   29934   29952       1
   29916   29922   29937   29958       1   29916   29925   29943   29967       1
   30126   30114   30120   30129       1   30123   30111   30120   30129       1
   30117   30105   30114   30120       1   30117   30105   30114   30126       1
   30114   30120   30111   30123       1   30111   30120   30114   30126       1
   30108   30096   30102   30111       1   30105   30114   30120   30129       1
   30102   30093   30105   30117       1   30102   30111   30120   30129       1
   30099   30087   30096   30102       1   30099   30087   30096   30108       1
   30096   30102   30111   30123       1   30093   30102   30096   30108       1
   30093   30102   30111   30123       1   30093   30105   30114   30126       1
   30090   30072   30084   30093       1   30084   30069   30087   30099       1
   30084   30093   30105   30117       1   30075   30051   30072   30084       1
   30075   30051   30072   30090       1   30069   30048   30063   30081       1
   30069   30084   30072   30090       1   30069   30087   30096   30108       1
   30066   30045   30063   30081       1   30060   30042   30054   30078       1
   30057   30036   30054   30078       1   30048   30033   30051   30075       1
   30048   30063   30045   30066       1   30048   30069   30087   30099       1
   30045   30030   30042   30060       1   30042   30030   30045   30066       1
   30042   30054   30036   30057       1   30039   30027   30036   30054       1
   30039   30027   30036   30057       1   30036   30054   30042   30060       1
   30033   30024   30027   30039       1   30033   30048   30063   30081       1
   30033   30051   30072   30090       1   30030   30024   30027   30039       1
   30030   30042   30054   30078       1   30030   30045   30063   30081       1
   30027   30036   30054   30078       1   30024   30027   30036   30057       1
   30024   30030   30042   30060       1   30024   30030   30045   30066       1
   30024   30033   30051   30075       1   30234   30222   30228   30237       1
   30231   30219   30228   30237       1   30225   30213   30222   30228       1
   30225   30213   30222   30234       1   30222   30228   30219   30231       1
   30219   30228   30222   30234       1   30216   30204   30210   30219       1
   30213   30222   30228   30237       1   30210   30201   30213   30225       1
   30210   30219   30228   30237       1   30207   30195   30204   30210       1
   30207   30195   30204   30216       1   30204   30210   30219   30231       1
   30201   30210   30204   30216       1   30201   30210   30219   30231       1
   30201   30213   30222   30234       1   30198   30180   30192   30201       1
   30192   30177   30195   30207       1   30192   30201   30213   30225       1
   30183   30159   30180   30192       1   30183   30159   30180   30198       1
   30177   30156   30171   30189       1   30177   30192   30180   30198       1
   30177   30195   30204   30216       1   30174   30153   30171   30189       1
   30168   30150   30162   30186       1   30165   30144   30162   30186       1
   30156   30141   30159   30183       1   30156   30171   30153   30174       1
   30156   30177   30195   30207       1   30153   30138   30150   30168       1
   30150   30138   30153   30174       1   30150   30162   30144   30165       1
   30147   30135   30144   30162       1   30147   30135   30144   30165       1
   30144   30162   30150   30168       1   30141   30132   30135   30147       1
   30141   30156   30171   30189       1   30141   30159   30180   30198       1
   30138   30132   30135   30147       1   30138   30150   30162   30186       1
   30138   30153   30171   30189       1   30135   30144   30162   30186       1
   30132   30135   30144   30165       1   30132   30138   30150   30168       1
   30132   30138   30153   30174       1   30132   30141   30159   30183       1
   30342   30330   30336   30345       1   30339   30327   30336   30345       1
   30333   30321   30330   30336       1   30333   30321   30330   30342       1
   30330   30336   30327   30339       1   30327   30336   30330   30342       1
   30324   30312   30318   30327       1   30321   30330   30336   30345       1
   30318   30309   30321   30333       1   30318   30327   30336   30345       1
   30315   30303   30312   30318       1   30315   30303   30312   30324       1
   30312   30318   30327   30339       1   30309   30318   30312   30324       1
   30309   30318   30327   30339       1   30309   30321   30330   30342       1
   30306   30288   30300   30309       1   30300   30285   30303   30315       1
   30300   30309   30321   30333       1   30291   30267   30288   30300       1
   30291   30267   30288   30306       1   30285   30264   30279   30297       1
   30285   30300   30288   30306       1   30285   30303   30312   30324       1
   30282   30261   30279   30297       1   30276   30258   30270   30294       1
   30273   30252   30270   30294       1   30264   30249   30267   30291       1
   30264   30279   30261   30282       1   30264   30285   30303   30315       1
   30261   30246   30258   30276       1   30258   30246   30261   30282       1
   30258   30270   30252   30273       1   30255   30243   30252   30270       1
   30255   30243   30252   30273       1   30252   30270   30258   30276       1
   30249   30240   30243   30255       1   30249   30264   30279   30297       1
   30249   30267   30288   30306       1   30246   30240   30243   30255       1
   30246   30258   30270   30294       1   30246   30261   30279   30297       1
   30243   30252   30270   30294       1   30240   30243   30252   30273       1
   30240   30246   30258   30276       1   30240   30246   30261   30282       1
   30240   30249   30267   30291       1   30450   30438   30444   30453       1
   30447   30435   30444   30453       1   30441   30429   30438   30444       1
   30441   30429   30438   30450       1   30438   30444   30435   30447       1
   30435   30444   30438   30450       1   30432   30420   30426   30435       1
   30429   30438   30444   30453       1   30426   30417   30429   30441       1
   30426   30435   30444   30453       1   30423   30411   30420   30426       1
   30423   30411   30420   30432       1   30420   30426   30435   30447       1
   30417   30426   30420   30432       1   30417   30426   30435   30447       1
   30417   30429   30438   30450       1   30414   30396   30408   30417       1
   30408   30393   30411   30423       1   30408   30417   30429   30441       1
   30399   30375   30396   30408       1   30399   30375   30396   30414       1
   30393   30372   30387   30405       1   30393   30408   30396   30414       1
   30393   30411   30420   30432       1   30390   30369   30387   30405       1
   30384   30366   30378   30402       1   30381   30360   30378   30402       1
   30372   30357   30375   30399       1   30372   30387   30369   30390       1
   30372   30393   30411   30423       1   30369   30354   30366   30384       1
   30366   30354   30369   30390       1   30366   30378   30360   30381       1
   30363   30351   30360   30378       1   30363   30351   30360   30381       1
   30360   30378   30366   30384       1   30357   30348   30351   30363       1
   30357   30372   30387   30405       1   30357   30375   30396   30414       1
   30354   30348   30351   30363       1   30354   30366   30378   30402       1
   30354   30369   30387   30405       1   30351   30360   30378   30402       1
   30348   30351   30360   30381       1   30348   30354   30366   30384       1
   30348   30354   30369   30390       1   30348   30357   30375   30399       1
   30558   30546   30552   30561       1   30555   30543   30552   30561       1
   30549   30537   30546   30552       1   30549   30537   30546   30558       1
   30546   30552   30543   30555       1   30543   30552   30546   30558       1
   30540   30528   30534   30543       1   30537   30546   30552   30561       1
   30534   30525   30537   30549       1   30534   30543   30552   30561       1
   30531   30519   30528   30534       1   30531   30519   30528   30540       1
   30528   30534   30543   30555       1   30525   30534   30528   30540       1
   30525   30534   30543   30555       1   30525   30537   30546   30558       1
   30522   30504   30516   30525       1   30516   30501   30519   30531       1
   30516   30525   30537   30549       1   30507   30483   30504   30516       1
   30507   30483   30504   30522       1   30501   30480   30495   30513       1
   30501   30516   30504   30522       1   30501   30519   30528   30540       1
   30498   30477   30495   30513       1   30492   30474   30486   30510       1
   30489   30468   30486   30510       1   30480   30465   30483   30507       1
   30480   30495   30477   30498       1   30480   30501   30519   30531       1
   30477   30462   30474   30492       1   30474   30462   30477   30498       1
   30474   30486   30468   30489       1   30471   30459   30468   30486       1
   30471   30459   30468   30489       1   30468   30486   30474   30492       1
   30465   30456   30459   30471       1   30465   30480   30495   30513       1
   30465   30483   30504   30522       1   30462   30456   30459   30471       1
   30462   30474   30486   30510       1   30462   30477   30495   30513       1
   30459   30468   30486   30510       1   30456   30459   30468   30489       1
   30456   30462   30474   30492       1   30456   30462   30477   30498       1
   30456   30465   30483   30507       1   30666   30654   30660   30669       1
   30663   30651   30660   30669       1   30657   30645   30654   30660       1
   30657   30645   30654   30666       1   30654   30660   30651   30663       1
   30651   30660   30654   30666       1   30648   30636   30642   30651       1
   30645   30654   30660   30669       1   30642   30633   30645   30657       1
   30642   30651   30660   30669       1   30639   30627   30636   30642       1
   30639   30627   30636   30648       1   30636   30642   30651   30663       1
   30633   30642   30636   30648       1   30633   30642   30651   30663       1
   30633   30645   30654   30666       1   30630   30612   30624   30633       1
   30624   30609   30627   30639       1   30624   30633   30645   30657       1
   30615   30591   30612   30624       1   30615   30591   30612   30630       1
   30609   30588   30603   30621       1   30609   30624   30612   30630       1
   30609   30627   30636   30648       1   30606   30585   30603   30621       1
   30600   30582   30594   30618       1   30597   30576   30594   30618       1
   30588   30573   30591   30615       1   30588   30603   30585   30606       1
   30588   30609   30627   30639       1   30585   30570   30582   30600       1
   30582   30570   30585   30606       1   30582   30594   30576   30597       1
   30579   30567   30576   30594       1   30579   30567   30576   30597       1
   30576   30594   30582   30600       1   30573   30564   30567   30579       1
   30573   30588   30603   30621       1   30573   30591   30612   30630       1
   30570   30564   30567   30579       1   30570   30582   30594   30618       1
   30570   30585   30603   30621       1   30567   30576   30594   30618       1
   30564   30567   30576   30597       1   30564   30570   30582   30600       1
   30564   30570   30585   30606       1   30564   30573   30591   30615       1
   30774   30762   30768   30777       1   30771   30759   30768   30777       1
   30765   30753   30762   30768       1   30765   30753   30762   30774       1
   30762   30768   30759   30771       1   30759   30768   30762   30774       1
   30756   30744   30750   30759       1   30753   30762   30768   30777       1
   30750   30741   30753   30765       1   30750   30759   30768   30777       1
   30747   30735   30744   30750       1   30747   30735   30744   30756       1
   30744   30750   30759   30771       1   30741   30750   30744   30756       1
   30741   30750   30759   30771       1   30741   30753   30762   30774       1
   30738   30720   30732   30741       1   30732   30717   30735   30747       1
   30732   30741   30753   30765       1   30723   30699   30720   30732       1
   30723   30699   30720   30738       1   30717   30696   30711   30729       1
   30717   30732   30720   30738       1   30717   30735   30744   30756       1
   30714   30693   30711   30729       1   30708   30690   30702   30726       1
   30705   30684   30702   30726       1   30696   30681   30699   30723       1
   30696   30711   30693   30714       1   30696   30717   30735   30747       1
   30693   30678   30690   30708       1   30690   30678   30693   30714       1
   30690   30702   30684   30705       1   30687   30675   30684   30702       1
   30687   30675   30684   30705       1   30684   30702   30690   30708       1
   30681   30672   30675   30687       1   30681   30696   30711   30729       1
   30681   30699   30720   30738       1   30678   30672   30675   30687       1
   30678   30690   30702   30726       1   30678   30693   30711   30729       1
   30675   30684   30702   30726       1   30672   30675   30684   30705       1
   30672   30678   30690   30708       1   30672   30678   30693   30714       1
   30672   30681   30699   30723       1   30882   30870   30876   30885       1
   30879   30867   30876   30885       1   30873   30861   30870   30876       1
   30873   30861   30870   30882       1   30870   30876   30867   30879       1
   30867   30876   30870   30882       1   30864   30852   30858   30867       1
   30861   30870   30876   30885       1   30858   30849   30861   30873       1
   30858   30867   30876   30885       1   30855   30843   30852   30858       1
   30855   30843   30852   30864       1   30852   30858   30867   30879       1
   30849   30858   30852   30864       1   30849   30858   30867   30879       1
   30849   30861   30870   30882       1   30846   30828   30840   30849       1
   30840   30825   30843   30855       1   30840   30849   30861   30873       1
   30831   30807   30828   30840       1   30831   30807   30828   30846       1
   30825   30804   30819   30837       1   30825   30840   30828   30846       1
   30825   30843   30852   30864       1   30822   30801   30819   30837       1
   30816   30798   30810   30834       1   30813   30792   30810   30834       1
   30804   30789   30807   30831       1   30804   30819   30801   30822       1
   30804   30825   30843   30855       1   30801   30786   30798   30816       1
   30798   30786   30801   30822       1   30798   30810   30792   30813       1
   30795   30783   30792   30810       1   30795   30783   30792   30813       1
   30792   30810   30798   30816       1   30789   30780   30783   30795       1
   30789   30804   30819   30837       1   30789   30807   30828   30846       1
   30786   30780   30783   30795       1   30786   30798   30810   30834       1
   30786   30801   30819   30837       1   30783   30792   30810   30834       1
   30780   30783   30792   30813       1   30780   30786   30798   30816       1
   30780   30786   30801   30822       1   30780   30789   30807   30831       1
   30990   30978   30984   30993       1   30987   30975   30984   30993       1
   30981   30969   30978   30984       1   30981   30969   30978   30990       1
   30978   30984   30975   30987       1   30975   30984   30978   30990       1
   30972   30960   30966   30975       1   30969   30978   30984   30993       1
   30966   30957   30969   30981       1   30966   30975   30984   30993       1
   30963   30951   30960   30966       1   30963   30951   30960   30972       1
   30960   30966   30975   30987       1   30957   30966   30960   30972       1
   30957   30966   30975   30987       1   30957   30969   30978   30990       1
   30954   30936   30948   30957       1   30948   30933   30951   30963       1
   30948   30957   30969   30981       1   30939   30915   30936   30948       1
   30939   30915   30936   30954       1   30933   30912   30927   30945       1
   30933   30948   30936   30954       1   30933   30951   30960   30972       1
   30930   30909   30927   30945       1   30924   30906   30918   30942       1
   30921   30900   30918   30942       1   30912   30897   30915   30939       1
   30912   30927   30909   30930       1   30912   30933   30951   30963       1
   30909   30894   30906   30924       1   30906   30894   30909   30930       1
   30906   30918   30900   30921       1   30903   30891   30900   30918       1
   30903   30891   30900   30921       1   30900   30918   30906   30924       1
   30897   30888   30891   30903       1   30897   30912   30927   30945       1
   30897   30915   30936   30954       1   30894   30888   30891   30903       1
   30894   30906   30918   30942       1   30894   30909   30927   30945       1
   30891   30900   30918   30942       1   30888   30891   30900   30921       1
   30888   30894   30906   30924       1   30888   30894   30909   30930       1
   30888   30897   30915   30939       1   31098   31086   31092   31101       1
   31095   31083   31092   31101       1   31089   31077   31086   31092       1
   31089   31077   31086   31098       1   31086   31092   31083   31095       1
   31083   31092   31086   31098       1   31080   31068   31074   31083       1
   31077   31086   31092   31101       1   31074   31065   31077   31089       1
   31074   31083   31092   31101       1   31071   31059   31068   31074       1
   31071   31059   31068   31080       1   31068   31074   31083   31095       1
   31065   31074   31068   31080       1   31065   31074   31083   31095       1
   31065   31077   31086   31098       1   31062   31044   31056   31065       1
   31056   31041   31059   31071       1   31056   31065   31077   31089       1
   31047   31023   31044   31056       1   31047   31023   31044   31062       1
   31041   31020   31035   31053       1   31041   31056   31044   31062       1
   31041   31059   31068   31080       1   31038   31017   31035   31053       1
   31032   31014   31026   31050       1   31029   31008   31026   31050       1
   31020   31005   31023   31047       1   31020   31035   31017   31038       1
   31020   31041   31059   31071       1   31017   31002   31014   31032       1
   31014   31002   31017   31038       1   31014   31026   31008   31029       1
   31011   30999   31008   31026       1   31011   30999   31008   31029       1
   31008   31026   31014   31032       1   31005   30996   30999   31011       1
   31005   31020   31035   31053       1   31005   31023   31044   31062       1
   31002   30996   30999   31011       1   31002   31014   31026   31050       1
   31002   31017   31035   31053       1   30999   31008   31026   31050       1
   30996   30999   31008   31029       1   30996   31002   31014   31032       1
   30996   31002   31017   31038       1   30996   31005   31023   31047       1
   31206   31194   31200   31209       1   31203   31191   31200   31209       1
   31197   31185   31194   31200       1   31197   31185   31194   31206       1
   31194   31200   31191   31203       1   31191   31200   31194   31206       1
   31188   31176   31182   31191       1   31185   31194   31200   31209       1
   31182   31173   31185   31197       1   31182   31191   31200   31209       1
   31179   31167   31176   31182       1   31179   31167   31176   31188       1
   31176   31182   31191   31203       1   31173   31182   31176   31188       1
   31173   31182   31191   31203       1   31173   31185   31194   31206       1
   31170   31152   31164   31173       1   31164   31149   31167   31179       1
   31164   31173   31185   31197       1   31155   31131   31152   31164       1
   31155   31131   31152   31170       1   31149   31128   31143   31161       1
   31149   31164   31152   31170       1   31149   31167   31176   31188       1
   31146   31125   31143   31161       1   31140   31122   31134   31158       1
   31137   31116   31134   31158       1   31128   31113   31131   31155       1
   31128   31143   31125   31146       1   31128   31149   31167   31179       1
   31125   31110   31122   31140       1   31122   31110   31125   31146       1
   31122   31134   31116   31137       1   31119   31107   31116   31134       1
   31119   31107   31116   31137       1   31116   31134   31122   31140       1
   31113   31104   31107   31119       1   31113   31128   31143   31161       1
   31113   31131   31152   31170       1   31110   31104   31107   31119       1
   31110   31122   31134   31158       1   31110   31125   31143   31161       1
   31107   31116   31134   31158       1   31104   31107   31116   31137       1
   31104   31110   31122   31140       1   31104   31110   31125   31146       1
   31104   31113   31131   31155       1   31314   31302   31308   31317       1
   31311   31299   31308   31317       1   31305   31293   31302   31308       1
   31305   31293   31302   31314       1   31302   31308   31299   31311       1
   31299   31308   31302   31314       1   31296   31284   31290   31299       1
   31293   31302   31308   31317       1   31290   31281   31293   31305       1
   31290   31299   31308   31317       1   31287   31275   31284   31290       1
   31287   31275   31284   31296       1   31284   31290   31299   31311       1
   31281   31290   31284   31296       1   31281   31290   31299   31311       1
   31281   31293   31302   31314       1   31278   31260   31272   31281       1
   31272   31257   31275   31287       1   31272   31281   31293   31305       1
   31263   31239   31260   31272       1   31263   31239   31260   31278       1
   31257   31236   31251   31269       1   31257   31272   31260   31278       1
   31257   31275   31284   31296       1   31254   31233   31251   31269       1
   31248   31230   31242   31266       1   31245   31224   31242   31266       1
   31236   31221   31239   31263       1   31236   31251   31233   31254       1
   31236   31257   31275   31287       1   31233   31218   31230   31248       1
   31230   31218   31233   31254       1   31230   31242   31224   31245       1
   31227   31215   31224   31242       1   31227   31215   31224   31245       1
   31224   31242   31230   31248       1   31221   31212   31215   31227       1
   31221   31236   31251   31269       1   31221   31239   31260   31278       1
   31218   31212   31215   31227       1   31218   31230   31242   31266       1
   31218   31233   31251   31269       1   31215   31224   31242   31266       1
   31212   31215   31224   31245       1   31212   31218   31230   31248       1
   31212   31218   31233   31254       1   31212   31221   31239   31263       1
   31422   31410   31416   31425       1   31419   31407   31416   31425       1
   31413   31401   31410   31416       1   31413   31401   31410   31422       1
   31410   31416   31407   31419       1   31407   31416   31410   31422       1
   31404   31392   31398   31407       1   31401   31410   31416   31425       1
   31398   31389   31401   31413       1   31398   31407   31416   31425       1
   31395   31383   31392   31398       1   31395   31383   31392   31404       1
   31392   31398   31407   31419       1   31389   31398   31392   31404       1
   31389   31398   31407   31419       1   31389   31401   31410   31422       1
   31386   31368   31380   31389       1   31380   31365   31383   31395       1
   31380   31389   31401   31413       1   31371   31347   31368   31380       1
   31371   31347   31368   31386       1   31365   31344   31359   31377       1
   31365   31380   31368   31386       1   31365   31383   31392   31404       1
   31362   31341   31359   31377       1   31356   31338   31350   31374       1
   31353   31332   31350   31374       1   31344   31329   31347   31371       1
   31344   31359   31341   31362       1   31344   31365   31383   31395       1
   31341   31326   31338   31356       1   31338   31326   31341   31362       1
   31338   31350   31332   31353       1   31335   31323   31332   31350       1
   31335   31323   31332   31353       1   31332   31350   31338   31356       1
   31329   31320   31323   31335       1   31329   31344   31359   31377       1
   31329   31347   31368   31386       1   31326   31320   31323   31335       1
   31326   31338   31350   31374       1   31326   31341   31359   31377       1
   31323   31332   31350   31374       1   31320   31323   31332   31353       1
   31320   31326   31338   31356       1   31320   31326   31341   31362       1
   31320   31329   31347   31371       1   31530   31518   31524   31533       1
   31527   31515   31524   31533       1   31521   31509   31518   31524       1
   31521   31509   31518   31530       1   31518   31524   31515   31527       1
   31515   31524   31518   31530       1   31512   31500   31506   31515       1
   31509   31518   31524   31533       1   31506   31497   31509   31521       1
   31506   31515   31524   31533       1   31503   31491   31500   31506       1
   31503   31491   31500   31512       1   31500   31506   31515   31527       1
   31497   31506   31500   31512       1   31497   31506   31515   31527       1
   31497   31509   31518   31530       1   31494   31476   31488   31497       1
   31488   31473   31491   31503       1   31488   31497   31509   31521       1
   31479   31455   31476   31488       1   31479   31455   31476   31494       1
   31473   31452   31467   31485       1   31473   31488   31476   31494       1
   31473   31491   31500   31512       1   31470   31449   31467   31485       1
   31464   31446   31458   31482       1   31461   31440   31458   31482       1
   31452   31437   31455   31479       1   31452   31467   31449   31470       1
   31452   31473   31491   31503       1   31449   31434   31446   31464       1
   31446   31434   31449   31470       1   31446   31458   31440   31461       1
   31443   31431   31440   31458       1   31443   31431   31440   31461       1
   31440   31458   31446   31464       1   31437   31428   31431   31443       1
   31437   31452   31467   31485       1   31437   31455   31476   31494       1
   31434   31428   31431   31443       1   31434   31446   31458   31482       1
   31434   31449   31467   31485       1   31431   31440   31458   31482       1
   31428   31431   31440   31461       1   31428   31434   31446   31464       1
   31428   31434   31449   31470       1   31428   31437   31455   31479       1
   31638   31626   31632   31641       1   31635   31623   31632   31641       1
   31629   31617   31626   31632       1   31629   31617   31626   31638       1
   31626   31632   31623   31635       1   31623   31632   31626   31638       1
   31620   31608   31614   31623       1   31617   31626   31632   31641       1
   31614   31605   31617   31629       1   31614   31623   31632   31641       1
   31611   31599   31608   31614       1   31611   31599   31608   31620       1
   31608   31614   31623   31635       1   31605   31614   31608   31620       1
   31605   31614   31623   31635       1   31605   31617   31626   31638       1
   31602   31584   31596   31605       1   31596   31581   31599   31611       1
   31596   31605   31617   31629       1   31587   31563   31584   31596       1
   31587   31563   31584   31602       1   31581   31560   31575   31593       1
   31581   31596   31584   31602       1   31581   31599   31608   31620       1
   31578   31557   31575   31593       1   31572   31554   31566   31590       1
   31569   31548   31566   31590       1   31560   31545   31563   31587       1
   31560   31575   31557   31578       1   31560   31581   31599   31611       1
   31557   31542   31554   31572       1   31554   31542   31557   31578       1
   31554   31566   31548   31569       1   31551   31539   31548   31566       1
   31551   31539   31548   31569       1   31548   31566   31554   31572       1
   31545   31536   31539   31551       1   31545   31560   31575   31593       1
   31545   31563   31584   31602       1   31542   31536   31539   31551       1
   31542   31554   31566   31590       1   31542   31557   31575   31593       1
   31539   31548   31566   31590       1   31536   31539   31548   31569       1
   31536   31542   31554   31572       1   31536   31542   31557   31578       1
   31536   31545   31563   31587       1   31746   31734   31740   31749       1
   31743   31731   31740   31749       1   31737   31725   31734   31740       1
   31737   31725   31734   31746       1   31734   31740   31731   31743       1
   31731   31740   31734   31746       1   31728   31716   31722   31731       1
   31725   31734   31740   31749       1   31722   31713   31725   31737       1
   31722   31731   31740   31749       1   31719   31707   31716   31722       1
   31719   31707   31716   31728       1   31716   31722   31731   31743       1
   31713   31722   31716   31728       1   31713   31722   31731   31743       1
   31713   31725   31734   31746       1   31710   31692   31704   31713       1
   31704   31689   31707   31719       1   31704   31713   31725   31737       1
   31695   31671   31692   31704       1   31695   31671   31692   31710       1
   31689   31668   31683   31701       1   31689   31704   31692   31710       1
   31689   31707   31716   31728       1   31686   31665   31683   31701       1
   31680   31662   31674   31698       1   31677   31656   31674   31698       1
   31668   31653   31671   31695       1   31668   31683   31665   31686       1
   31668   31689   31707   31719       1   31665   31650   31662   31680       1
   31662   31650   31665   31686       1   31662   31674   31656   31677       1
   31659   31647   31656   31674       1   31659   31647   31656   31677       1
   31656   31674   31662   31680       1   31653   31644   31647   31659       1
   31653   31668   31683   31701       1   31653   31671   31692   31710       1
   31650   31644   31647   31659       1   31650   31662   31674   31698       1
   31650   31665   31683   31701       1   31647   31656   31674   31698       1
   31644   31647   31656   31677       1   31644   31650   31662   31680       1
   31644   31650   31665   31686       1   31644   31653   31671   31695       1
   31854   31842   31848   31857       1   31851   31839   31848   31857       1
   31845   31833   31842   31848       1   31845   31833   31842   31854       1
   31842   31848   31839   31851       1   31839   31848   31842   31854       1
   31836   31824   31830   31839       1   31833   31842   31848   31857       1
   31830   31821   31833   31845       1   31830   31839   31848   31857       1
   31827   31815   31824   31830       1   31827   31815   31824   31836       1
   31824   31830   31839   31851       1   31821   31830   31824   31836       1
   31821   31830   31839   31851       1   31821   31833   31842   31854       1
   31818   31800   31812   31821       1   31812   31797   31815   31827       1
   31812   31821   31833   31845       1   31803   31779   31800   31812       1
   31803   31779   31800   31818       1   31797   31776   31791   31809       1
   31797   31812   31800   31818       1   31797   31815   31824   31836       1
   31794   31773   31791   31809       1   31788   31770   31782   31806       1
   31785   31764   31782   31806       1   31776   31761   31779   31803       1
   31776   31791   31773   31794       1   31776   31797   31815   31827       1
   31773   31758   31770   31788       1   31770   31758   31773   31794       1
   31770   31782   31764   31785       1   31767   31755   31764   31782       1
   31767   31755   31764   31785       1   31764   31782   31770   31788       1
   31761   31752   31755   31767       1   31761   31776   31791   31809       1
   31761   31779   31800   31818       1   31758   31752   31755   31767       1
   31758   31770   31782   31806       1   31758   31773   31791   31809       1
   31755   31764   31782   31806       1   31752   31755   31764   31785       1
   31752   31758   31770   31788       1   31752   31758   31773   31794       1
   31752   31761   31779   31803       1   31962   31950   31956   31965       1
   31959   31947   31956   31965       1   31953   31941   31950   31956       1
   31953   31941   31950   31962       1   31950   31956   31947   31959       1
   31947   31956   31950   31962       1   31944   31932   31938   31947       1
   31941   31950   31956   31965       1   31938   31929   31941   31953       1
   31938   31947   31956   31965       1   31935   31923   31932   31938       1
   31935   31923   31932   31944       1   31932   31938   31947   31959       1
   31929   31938   31932   31944       1   31929   31938   31947   31959       1
   31929   31941   31950   31962       1   31926   31908   31920   31929       1
   31920   31905   31923   31935       1   31920   31929   31941   31953       1
   31911   31887   31908   31920       1   31911   31887   31908   31926       1
   31905   31884   31899   31917       1   31905   31920   31908   31926       1
   31905   31923   31932   31944       1   31902   31881   31899   31917       1
   31896   31878   31890   31914       1   31893   31872   31890   31914       1
   31884   31869   31887   31911       1   31884   31899   31881   31902       1
   31884   31905   31923   31935       1   31881   31866   31878   31896       1
   31878   31866   31881   31902       1   31878   31890   31872   31893       1
   31875   31863   31872   31890       1   31875   31863   31872   31893       1
   31872   31890   31878   31896       1   31869   31860   31863   31875       1
   31869   31884   31899   31917       1   31869   31887   31908   31926       1
   31866   31860   31863   31875       1   31866   31878   31890   31914       1
   31866   31881   31899   31917       1   31863   31872   31890   31914       1
   31860   31863   31872   31893       1   31860   31866   31878   31896       1
   31860   31866   31881   31902       1   31860   31869   31887   31911       1
   32070   32058   32064   32073       1   32067   32055   32064   32073       1
   32061   32049   32058   32064       1   32061   32049   32058   32070       1
   32058   32064   32055   32067       1   32055   32064   32058   32070       1
   32052   32040   32046   32055       1   32049   32058   32064   32073       1
   32046   32037   32049   32061       1   32046   32055   32064   32073       1
   32043   32031   32040   32046       1   32043   32031   32040   32052       1
   32040   32046   32055   32067       1   32037   32046   32040   32052       1
   32037   32046   32055   32067       1   32037   32049   32058   32070       1
   32034   32016   32028   32037       1   32028   32013   32031   32043       1
   32028   32037   32049   32061       1   32019   31995   32016   32028       1
   32019   31995   32016   32034       1   32013   31992   32007   32025       1
   32013   32028   32016   32034       1   32013   32031   32040   32052       1
   32010   31989   32007   32025       1   32004   31986   31998   32022       1
   32001   31980   31998   32022       1   31992   31977   31995   32019       1
   31992   32007   31989   32010       1   31992   32013   32031   32043       1
   31989   31974   31986   32004       1   31986   31974   31989   32010       1
   31986   31998   31980   32001       1   31983   31971   31980   31998       1
   31983   31971   31980   32001       1   31980   31998   31986   32004       1
   31977   31968   31971   31983       1   31977   31992   32007   32025       1
   31977   31995   32016   32034       1   31974   31968   31971   31983       1
   31974   31986   31998   32022       1   31974   31989   32007   32025       1
   31971   31980   31998   32022       1   31968   31971   31980   32001       1
   31968   31974   31986   32004       1   31968   31974   31989   32010       1
   31968   31977   31995   32019       1   32178   32166   32172   32181       1
   32175   32163   32172   32181       1   32169   32157   32166   32172       1
   32169   32157   32166   32178       1   32166   32172   32163   32175       1
   32163   32172   32166   32178       1   32160   32148   32154   32163       1
   32157   32166   32172   32181       1   32154   32145   32157   32169       1
   32154   32163   32172   32181       1   32151   32139   32148   32154       1
   32151   32139   32148   32160       1   32148   32154   32163   32175       1
   32145   32154   32148   32160       1   32145   32154   32163   32175       1
   32145   32157   32166   32178       1   32142   32124   32136   32145       1
   32136   32121   32139   32151       1   32136   32145   32157   32169       1
   32127   32103   32124   32136       1   32127   32103   32124   32142       1
   32121   32100   32115   32133       1   32121   32136   32124   32142       1
   32121   32139   32148   32160       1   32118   32097   32115   32133       1
   32112   32094   32106   32130       1   32109   32088   32106   32130       1
   32100   32085   32103   32127       1   32100   32115   32097   32118       1
   32100   32121   32139   32151       1   32097   32082   32094   32112       1
   32094   32082   32097   32118       1   32094   32106   32088   32109       1
   32091   32079   32088   32106       1   32091   32079   32088   32109       1
   32088   32106   32094   32112       1   32085   32076   32079   32091       1
   32085   32100   32115   32133       1   32085   32103   32124   32142       1
   32082   32076   32079   32091       1   32082   32094   32106   32130       1
   32082   32097   32115   32133       1   32079   32088   32106   32130       1
   32076   32079   32088   32109       1   32076   32082   32094   32112       1
   32076   32082   32097   32118       1   32076   32085   32103   32127       1
   32286   32274   32280   32289       1   32283   32271   32280   32289       1
   32277   32265   32274   32280       1   32277   32265   32274   32286       1
   32274   32280   32271   32283       1   32271   32280   32274   32286       1
   32268   32256   32262   32271       1   32265   32274   32280   32289       1
   32262   32253   32265   32277       1   32262   32271   32280   32289       1
   32259   32247   32256   32262       1   32259   32247   32256   32268       1
   32256   32262   32271   32283       1   32253   32262   32256   32268       1
   32253   32262   32271   32283       1   32253   32265   32274   32286       1
   32250   32232   32244   32253       1   32244   32229   32247   32259       1
   32244   32253   32265   32277       1   32235   32211   32232   32244       1
   32235   32211   32232   32250       1   32229   32208   32223   32241       1
   32229   32244   32232   32250       1   32229   32247   32256   32268       1
   32226   32205   32223   32241       1   32220   32202   32214   32238       1
   32217   32196   32214   32238       1   32208   32193   32211   32235       1
   32208   32223   32205   32226       1   32208   32229   32247   32259       1
   32205   32190   32202   32220       1   32202   32190   32205   32226       1
   32202   32214   32196   32217       1   32199   32187   32196   32214       1
   32199   32187   32196   32217       1   32196   32214   32202   32220       1
   32193   32184   32187   32199       1   32193   32208   32223   32241       1
   32193   32211   32232   32250       1   32190   32184   32187   32199       1
   32190   32202   32214   32238       1   32190   32205   32223   32241       1
   32187   32196   32214   32238       1   32184   32187   32196   32217       1
   32184   32190   32202   32220       1   32184   32190   32205   32226       1
   32184   32193   32211   32235       1   32394   32382   32388   32397       1
   32391   32379   32388   32397       1   32385   32373   32382   32388       1
   32385   32373   32382   32394       1   32382   32388   32379   32391       1
   32379   32388   32382   32394       1   32376   32364   32370   32379       1
   32373   32382   32388   32397       1   32370   32361   32373   32385       1
   32370   32379   32388   32397       1   32367   32355   32364   32370       1
   32367   32355   32364   32376       1   32364   32370   32379   32391       1
   32361   32370   32364   32376       1   32361   32370   32379   32391       1
   32361   32373   32382   32394       1   32358   32340   32352   32361       1
   32352   32337   32355   32367       1   32352   32361   32373   32385       1
   32343   32319   32340   32352       1   32343   32319   32340   32358       1
   32337   32316   32331   32349       1   32337   32352   32340   32358       1
   32337   32355   32364   32376       1   32334   32313   32331   32349       1
   32328   32310   32322   32346       1   32325   32304   32322   32346       1
   32316   32301   32319   32343       1   32316   32331   32313   32334       1
   32316   32337   32355   32367       1   32313   32298   32310   32328       1
   32310   32298   32313   32334       1   32310   32322   32304   32325       1
   32307   32295   32304   32322       1   32307   32295   32304   32325       1
   32304   32322   32310   32328       1   32301   32292   32295   32307       1
   32301   32316   32331   32349       1   32301   32319   32340   32358       1
   32298   32292   32295   32307       1   32298   32310   32322   32346       1
   32298   32313   32331   32349       1   32295   32304   32322   32346       1
   32292   32295   32304   32325       1   32292   32298   32310   32328       1
   32292   32298   32313   32334       1   32292   32301   32319   32343       1
   32502   32490   32496   32505       1   32499   32487   32496   32505       1
   32493   32481   32490   32496       1   32493   32481   32490   32502       1
   32490   32496   32487   32499       1   32487   32496   32490   32502       1
   32484   32472   32478   32487       1   32481   32490   32496   32505       1
   32478   32469   32481   32493       1   32478   32487   32496   32505       1
   32475   32463   32472   32478       1   32475   32463   32472   32484       1
   32472   32478   32487   32499       1   32469   32478   32472   32484       1
   32469   32478   32487   32499       1   32469   32481   32490   32502       1
   32466   32448   32460   32469       1   32460   32445   32463   32475       1
   32460   32469   32481   32493       1   32451   32427   32448   32460       1
   32451   32427   32448   32466       1   32445   32424   32439   32457       1
   32445   32460   32448   32466       1   32445   32463   32472   32484       1
   32442   32421   32439   32457       1   32436   32418   32430   32454       1
   32433   32412   32430   32454       1   32424   32409   32427   32451       1
   32424   32439   32421   32442       1   32424   32445   32463   32475       1
   32421   32406   32418   32436       1   32418   32406   32421   32442       1
   32418   32430   32412   32433       1   32415   32403   32412   32430       1
   32415   32403   32412   32433       1   32412   32430   32418   32436       1
   32409   32400   32403   32415       1   32409   32424   32439   32457       1
   32409   32427   32448   32466       1   32406   32400   32403   32415       1
   32406   32418   32430   32454       1   32406   32421   32439   32457       1
   32403   32412   32430   32454       1   32400   32403   32412   32433       1
   32400   32406   32418   32436       1   32400   32406   32421   32442       1
   32400   32409   32427   32451       1   32610   32598   32604   32613       1
   32607   32595   32604   32613       1   32601   32589   32598   32604       1
   32601   32589   32598   32610       1   32598   32604   32595   32607       1
   32595   32604   32598   32610       1   32592   32580   32586   32595       1
   32589   32598   32604   32613       1   32586   32577   32589   32601       1
   32586   32595   32604   32613       1   32583   32571   32580   32586       1
   32583   32571   32580   32592       1   32580   32586   32595   32607       1
   32577   32586   32580   32592       1   32577   32586   32595   32607       1
   32577   32589   32598   32610       1   32574   32556   32568   32577       1
   32568   32553   32571   32583       1   32568   32577   32589   32601       1
   32559   32535   32556   32568       1   32559   32535   32556   32574       1
   32553   32532   32547   32565       1   32553   32568   32556   32574       1
   32553   32571   32580   32592       1   32550   32529   32547   32565       1
   32544   32526   32538   32562       1   32541   32520   32538   32562       1
   32532   32517   32535   32559       1   32532   32547   32529   32550       1
   32532   32553   32571   32583       1   32529   32514   32526   32544       1
   32526   32514   32529   32550       1   32526   32538   32520   32541       1
   32523   32511   32520   32538       1   32523   32511   32520   32541       1
   32520   32538   32526   32544       1   32517   32508   32511   32523       1
   32517   32532   32547   32565       1   32517   32535   32556   32574       1
   32514   32508   32511   32523       1   32514   32526   32538   32562       1
   32514   32529   32547   32565       1   32511   32520   32538   32562       1
   32508   32511   32520   32541       1   32508   32514   32526   32544       1
   32508   32514   32529   32550       1   32508   32517   32535   32559       1
   32718   32706   32712   32721       1   32715   32703   32712   32721       1
   32709   32697   32706   32712       1   32709   32697   32706   32718       1
   32706   32712   32703   32715       1   32703   32712   32706   32718       1
   32700   32688   32694   32703       1   32697   32706   32712   32721       1
   32694   32685   32697   32709       1   32694   32703   32712   32721       1
   32691   32679   32688   32694       1   32691   32679   32688   32700       1
   32688   32694   32703   32715       1   32685   32694   32688   32700       1
   32685   32694   32703   32715       1   32685   32697   32706   32718       1
   32682   32664   32676   32685       1   32676   32661   32679   32691       1
   32676   32685   32697   32709       1   32667   32643   32664   32676       1
   32667   32643   32664   32682       1   32661   32640   32655   32673       1
   32661   32676   32664   32682       1   32661   32679   32688   32700       1
   32658   32637   32655   32673       1   32652   32634   32646   32670       1
   32649   32628   32646   32670       1   32640   32625   32643   32667       1
   32640   32655   32637   32658       1   32640   32661   32679   32691       1
   32637   32622   32634   32652       1   32634   32622   32637   32658       1
   32634   32646   32628   32649       1   32631   32619   32628   32646       1
   32631   32619   32628   32649       1   32628   32646   32634   32652       1
   32625   32616   32619   32631       1   32625   32640   32655   32673       1
   32625   32643   32664   32682       1   32622   32616   32619   32631       1
   32622   32634   32646   32670       1   32622   32637   32655   32673       1
   32619   32628   32646   32670       1   32616   32619   32628   32649       1
   32616   32622   32634   32652       1   32616   32622   32637   32658       1
   32616   32625   32643   32667       1   32826   32814   32820   32829       1
   32823   32811   32820   32829       1   32817   32805   32814   32820       1
   32817   32805   32814   32826       1   32814   32820   32811   32823       1
   32811   32820   32814   32826       1   32808   32796   32802   32811       1
   32805   32814   32820   32829       1   32802   32793   32805   32817       1
   32802   32811   32820   32829       1   32799   32787   32796   32802       1
   32799   32787   32796   32808       1   32796   32802   32811   32823       1
   32793   32802   32796   32808       1   32793   32802   32811   32823       1
   32793   32805   32814   32826       1   32790   32772   32784   32793       1
   32784   32769   32787   32799       1   32784   32793   32805   32817       1
   32775   32751   32772   32784       1   32775   32751   32772   32790       1
   32769   32748   32763   32781       1   32769   32784   32772   32790       1
   32769   32787   32796   32808       1   32766   32745   32763   32781       1
   32760   32742   32754   32778       1   32757   32736   32754   32778       1
   32748   32733   32751   32775       1   32748   32763   32745   32766       1
   32748   32769   32787   32799       1   32745   32730   32742   32760       1
   32742   32730   32745   32766       1   32742   32754   32736   32757       1
   32739   32727   32736   32754       1   32739   32727   32736   32757       1
   32736   32754   32742   32760       1   32733   32724   32727   32739       1
   32733   32748   32763   32781       1   32733   32751   32772   32790       1
   32730   32724   32727   32739       1   32730   32742   32754   32778       1
   32730   32745   32763   32781       1   32727   32736   32754   32778       1
   32724   32727   32736   32757       1   32724   32730   32742   32760       1
   32724   32730   32745   32766       1   32724   32733   32751   32775       1
   32934   32922   32928   32937       1   32931   32919   32928   32937       1
   32925   32913   32922   32928       1   32925   32913   32922   32934       1
   32922   32928   32919   32931       1   32919   32928   32922   32934       1
   32916   32904   32910   32919       1   32913   32922   32928   32937       1
   32910   32901   32913   32925       1   32910   32919   32928   32937       1
   32907   32895   32904   32910       1   32907   32895   32904   32916       1
   32904   32910   32919   32931       1   32901   32910   32904   32916       1
   32901   32910   32919   32931       1   32901   32913   32922   32934       1
   32898   32880   32892   32901       1   32892   32877   32895   32907       1
   32892   32901   32913   32925       1   32883   32859   32880   32892       1
   32883   32859   32880   32898       1   32877   32856   32871   32889       1
   32877   32892   32880   32898       1   32877   32895   32904   32916       1
   32874   32853   32871   32889       1   32868   32850   32862   32886       1
   32865   32844   32862   32886       1   32856   32841   32859   32883       1
   32856   32871   32853   32874       1   32856   32877   32895   32907       1
   32853   32838   32850   32868       1   32850   32838   32853   32874       1
   32850   32862   32844   32865       1   32847   32835   32844   32862       1
   32847   32835   32844   32865       1   32844   32862   32850   32868       1
   32841   32832   32835   32847       1   32841   32856   32871   32889       1
   32841   32859   32880   32898       1   32838   32832   32835   32847       1
   32838   32850   32862   32886       1   32838   32853   32871   32889       1
   32835   32844   32862   32886       1   32832   32835   32844   32865       1
   32832   32838   32850   32868       1   32832   32838   32853   32874       1
   32832   32841   32859   32883       1   33042   33030   33036   33045       1
   33039   33027   33036   33045       1   33033   33021   33030   33036       1
   33033   33021   33030   33042       1   33030   33036   33027   33039       1
   33027   33036   33030   33042       1   33024   33012   33018   33027       1
   33021   33030   33036   33045       1   33018   33009   33021   33033       1
   33018   33027   33036   33045       1   33015   33003   33012   33018       1
   33015   33003   33012   33024       1   33012   33018   33027   33039       1
   33009   33018   33012   33024       1   33009   33018   33027   33039       1
   33009   33021   33030   33042       1   33006   32988   33000   33009       1
   33000   32985   33003   33015       1   33000   33009   33021   33033       1
   32991   32967   32988   33000       1   32991   32967   32988   33006       1
   32985   32964   32979   32997       1   32985   33000   32988   33006       1
   32985   33003   33012   33024       1   32982   32961   32979   32997       1
   32976   32958   32970   32994       1   32973   32952   32970   32994       1
   32964   32949   32967   32991       1   32964   32979   32961   32982       1
   32964   32985   33003   33015       1   32961   32946   32958   32976       1
   32958   32946   32961   32982       1   32958   32970   32952   32973       1
   32955   32943   32952   32970       1   32955   32943   32952   32973       1
   32952   32970   32958   32976       1   32949   32940   32943   32955       1
   32949   32964   32979   32997       1   32949   32967   32988   33006       1
   32946   32940   32943   32955       1   32946   32958   32970   32994       1
   32946   32961   32979   32997       1   32943   32952   32970   32994       1
   32940   32943   32952   32973       1   32940   32946   32958   32976       1
   32940   32946   32961   32982       1   32940   32949   32967   32991       1
   33150   33138   33144   33153       1   33147   33135   33144   33153       1
   33141   33129   33138   33144       1   33141   33129   33138   33150       1
   33138   33144   33135   33147       1   33135   33144   33138   33150       1
   33132   33120   33126   33135       1   33129   33138   33144   33153       1
   33126   33117   33129   33141       1   33126   33135   33144   33153       1
   33123   33111   33120   33126       1   33123   33111   33120   33132       1
   33120   33126   33135   33147       1   33117   33126   33120   33132       1
   33117   33126   33135   33147       1   33117   33129   33138   33150       1
   33114   33096   33108   33117       1   33108   33093   33111   33123       1
   33108   33117   33129   33141       1   33099   33075   33096   33108       1
   33099   33075   33096   33114       1   33093   33072   33087   33105       1
   33093   33108   33096   33114       1   33093   33111   33120   33132       1
   33090   33069   33087   33105       1   33084   33066   33078   33102       1
   33081   33060   33078   33102       1   33072   33057   33075   33099       1
   33072   33087   33069   33090       1   33072   33093   33111   33123       1
   33069   33054   33066   33084       1   33066   33054   33069   33090       1
   33066   33078   33060   33081       1   33063   33051   33060   33078       1
   33063   33051   33060   33081       1   33060   33078   33066   33084       1
   33057   33048   33051   33063       1   33057   33072   33087   33105       1
   33057   33075   33096   33114       1   33054   33048   33051   33063       1
   33054   33066   33078   33102       1   33054   33069   33087   33105       1
   33051   33060   33078   33102       1   33048   33051   33060   33081       1
   33048   33054   33066   33084       1   33048   33054   33069   33090       1
   33048   33057   33075   33099       1   33258   33246   33252   33261       1
   33255   33243   33252   33261       1   33249   33237   33246   33252       1
   33249   33237   33246   33258       1   33246   33252   33243   33255       1
   33243   33252   33246   33258       1   33240   33228   33234   33243       1
   33237   33246   33252   33261       1   33234   33225   33237   33249       1
   33234   33243   33252   33261       1   33231   33219   33228   33234       1
   33231   33219   33228   33240       1   33228   33234   33243   33255       1
   33225   33234   33228   33240       1   33225   33234   33243   33255       1
   33225   33237   33246   33258       1   33222   33204   33216   33225       1
   33216   33201   33219   33231       1   33216   33225   33237   33249       1
   33207   33183   33204   33216       1   33207   33183   33204   33222       1
   33201   33180   33195   33213       1   33201   33216   33204   33222       1
   33201   33219   33228   33240       1   33198   33177   33195   33213       1
   33192   33174   33186   33210       1   33189   33168   33186   33210       1
   33180   33165   33183   33207       1   33180   33195   33177   33198       1
   33180   33201   33219   33231       1   33177   33162   33174   33192       1
   33174   33162   33177   33198       1   33174   33186   33168   33189       1
   33171   33159   33168   33186       1   33171   33159   33168   33189       1
   33168   33186   33174   33192       1   33165   33156   33159   33171       1
   33165   33180   33195   33213       1   33165   33183   33204   33222       1
   33162   33156   33159   33171       1   33162   33174   33186   33210       1
   33162   33177   33195   33213       1   33159   33168   33186   33210       1
   33156   33159   33168   33189       1   33156   33162   33174   33192       1
   33156   33162   33177   33198       1   33156   33165   33183   33207       1
   33366   33354   33360   33369       1   33363   33351   33360   33369       1
   33357   33345   33354   33360       1   33357   33345   33354   33366       1
   33354   33360   33351   33363       1   33351   33360   33354   33366       1
   33348   33336   33342   33351       1   33345   33354   33360   33369       1
   33342   33333   33345   33357       1   33342   33351   33360   33369       1
   33339   33327   33336   33342       1   33339   33327   33336   33348       1
   33336   33342   33351   33363       1   33333   33342   33336   33348       1
   33333   33342   33351   33363       1   33333   33345   33354   33366       1
   33330   33312   33324   33333       1   33324   33309   33327   33339       1
   33324   33333   33345   33357       1   33315   33291   33312   33324       1
   33315   33291   33312   33330       1   33309   33288   33303   33321       1
   33309   33324   33312   33330       1   33309   33327   33336   33348       1
   33306   33285   33303   33321       1   33300   33282   33294   33318       1
   33297   33276   33294   33318       1   33288   33273   33291   33315       1
   33288   33303   33285   33306       1   33288   33309   33327   33339       1
   33285   33270   33282   33300       1   33282   33270   33285   33306       1
   33282   33294   33276   33297       1   33279   33267   33276   33294       1
   33279   33267   33276   33297       1   33276   33294   33282   33300       1
   33273   33264   33267   33279       1   33273   33288   33303   33321       1
   33273   33291   33312   33330       1   33270   33264   33267   33279       1
   33270   33282   33294   33318       1   33270   33285   33303   33321       1
   33267   33276   33294   33318       1   33264   33267   33276   33297       1
   33264   33270   33282   33300       1   33264   33270   33285   33306       1
   33264   33273   33291   33315       1   33474   33462   33468   33477       1
   33471   33459   33468   33477       1   33465   33453   33462   33468       1
   33465   33453   33462   33474       1   33462   33468   33459   33471       1
   33459   33468   33462   33474       1   33456   33444   33450   33459       1
   33453   33462   33468   33477       1   33450   33441   33453   33465       1
   33450   33459   33468   33477       1   33447   33435   33444   33450       1
   33447   33435   33444   33456       1   33444   33450   33459   33471       1
   33441   33450   33444   33456       1   33441   33450   33459   33471       1
   33441   33453   33462   33474       1   33438   33420   33432   33441       1
   33432   33417   33435   33447       1   33432   33441   33453   33465       1
   33423   33399   33420   33432       1   33423   33399   33420   33438       1
   33417   33396   33411   33429       1   33417   33432   33420   33438       1
   33417   33435   33444   33456       1   33414   33393   33411   33429       1
   33408   33390   33402   33426       1   33405   33384   33402   33426       1
   33396   33381   33399   33423       1   33396   33411   33393   33414       1
   33396   33417   33435   33447       1   33393   33378   33390   33408       1
   33390   33378   33393   33414       1   33390   33402   33384   33405       1
   33387   33375   33384   33402       1   33387   33375   33384   33405       1
   33384   33402   33390   33408       1   33381   33372   33375   33387       1
   33381   33396   33411   33429       1   33381   33399   33420   33438       1
   33378   33372   33375   33387       1   33378   33390   33402   33426       1
   33378   33393   33411   33429       1   33375   33384   33402   33426       1
   33372   33375   33384   33405       1   33372   33378   33390   33408       1
   33372   33378   33393   33414       1   33372   33381   33399   33423       1
   33582   33570   33576   33585       1   33579   33567   33576   33585       1
   33573   33561   33570   33576       1   33573   33561   33570   33582       1
   33570   33576   33567   33579       1   33567   33576   33570   33582       1
   33564   33552   33558   33567       1   33561   33570   33576   33585       1
   33558   33549   33561   33573       1   33558   33567   33576   33585       1
   33555   33543   33552   33558       1   33555   33543   33552   33564       1
   33552   33558   33567   33579       1   33549   33558   33552   33564       1
   33549   33558   33567   33579       1   33549   33561   33570   33582       1
   33546   33528   33540   33549       1   33540   33525   33543   33555       1
   33540   33549   33561   33573       1   33531   33507   33528   33540       1
   33531   33507   33528   33546       1   33525   33504   33519   33537       1
   33525   33540   33528   33546       1   33525   33543   33552   33564       1
   33522   33501   33519   33537       1   33516   33498   33510   33534       1
   33513   33492   33510   33534       1   33504   33489   33507   33531       1
   33504   33519   33501   33522       1   33504   33525   33543   33555       1
   33501   33486   33498   33516       1   33498   33486   33501   33522       1
   33498   33510   33492   33513       1   33495   33483   33492   33510       1
   33495   33483   33492   33513       1   33492   33510   33498   33516       1
   33489   33480   33483   33495       1   33489   33504   33519   33537       1
   33489   33507   33528   33546       1   33486   33480   33483   33495       1
   33486   33498   33510   33534       1   33486   33501   33519   33537       1
   33483   33492   33510   33534       1   33480   33483   33492   33513       1
   33480   33486   33498   33516       1   33480   33486   33501   33522       1
   33480   33489   33507   33531       1   33690   33678   33684   33693       1
   33687   33675   33684   33693       1   33681   33669   33678   33684       1
   33681   33669   33678   33690       1   33678   33684   33675   33687       1
   33675   33684   33678   33690       1   33672   33660   33666   33675       1
   33669   33678   33684   33693       1   33666   33657   33669   33681       1
   33666   33675   33684   33693       1   33663   33651   33660   33666       1
   33663   33651   33660   33672       1   33660   33666   33675   33687       1
   33657   33666   33660   33672       1   33657   33666   33675   33687       1
   33657   33669   33678   33690       1   33654   33636   33648   33657       1
   33648   33633   33651   33663       1   33648   33657   33669   33681       1
   33639   33615   33636   33648       1   33639   33615   33636   33654       1
   33633   33612   33627   33645       1   33633   33648   33636   33654       1
   33633   33651   33660   33672       1   33630   33609   33627   33645       1
   33624   33606   33618   33642       1   33621   33600   33618   33642       1
   33612   33597   33615   33639       1   33612   33627   33609   33630       1
   33612   33633   33651   33663       1   33609   33594   33606   33624       1
   33606   33594   33609   33630       1   33606   33618   33600   33621       1
   33603   33591   33600   33618       1   33603   33591   33600   33621       1
   33600   33618   33606   33624       1   33597   33588   33591   33603       1
   33597   33612   33627   33645       1   33597   33615   33636   33654       1
   33594   33588   33591   33603       1   33594   33606   33618   33642       1
   33594   33609   33627   33645       1   33591   33600   33618   33642       1
   33588   33591   33600   33621       1   33588   33594   33606   33624       1
   33588   33594   33609   33630       1   33588   33597   33615   33639       1
   33798   33786   33792   33801       1   33795   33783   33792   33801       1
   33789   33777   33786   33792       1   33789   33777   33786   33798       1
   33786   33792   33783   33795       1   33783   33792   33786   33798       1
   33780   33768   33774   33783       1   33777   33786   33792   33801       1
   33774   33765   33777   33789       1   33774   33783   33792   33801       1
   33771   33759   33768   33774       1   33771   33759   33768   33780       1
   33768   33774   33783   33795       1   33765   33774   33768   33780       1
   33765   33774   33783   33795       1   33765   33777   33786   33798       1
   33762   33744   33756   33765       1   33756   33741   33759   33771       1
   33756   33765   33777   33789       1   33747   33723   33744   33756       1
   33747   33723   33744   33762       1   33741   33720   33735   33753       1
   33741   33756   33744   33762       1   33741   33759   33768   33780       1
   33738   33717   33735   33753       1   33732   33714   33726   33750       1
   33729   33708   33726   33750       1   33720   33705   33723   33747       1
   33720   33735   33717   33738       1   33720   33741   33759   33771       1
   33717   33702   33714   33732       1   33714   33702   33717   33738       1
   33714   33726   33708   33729       1   33711   33699   33708   33726       1
   33711   33699   33708   33729       1   33708   33726   33714   33732       1
   33705   33696   33699   33711       1   33705   33720   33735   33753       1
   33705   33723   33744   33762       1   33702   33696   33699   33711       1
   33702   33714   33726   33750       1   33702   33717   33735   33753       1
   33699   33708   33726   33750       1   33696   33699   33708   33729       1
   33696   33702   33714   33732       1   33696   33702   33717   33738       1
   33696   33705   33723   33747       1   33906   33894   33900   33909       1
   33903   33891   33900   33909       1   33897   33885   33894   33900       1
   33897   33885   33894   33906       1   33894   33900   33891   33903       1
   33891   33900   33894   33906       1   33888   33876   33882   33891       1
   33885   33894   33900   33909       1   33882   33873   33885   33897       1
   33882   33891   33900   33909       1   33879   33867   33876   33882       1
   33879   33867   33876   33888       1   33876   33882   33891   33903       1
   33873   33882   33876   33888       1   33873   33882   33891   33903       1
   33873   33885   33894   33906       1   33870   33852   33864   33873       1
   33864   33849   33867   33879       1   33864   33873   33885   33897       1
   33855   33831   33852   33864       1   33855   33831   33852   33870       1
   33849   33828   33843   33861       1   33849   33864   33852   33870       1
   33849   33867   33876   33888       1   33846   33825   33843   33861       1
   33840   33822   33834   33858       1   33837   33816   33834   33858       1
   33828   33813   33831   33855       1   33828   33843   33825   33846       1
   33828   33849   33867   33879       1   33825   33810   33822   33840       1
   33822   33810   33825   33846       1   33822   33834   33816   33837       1
   33819   33807   33816   33834       1   33819   33807   33816   33837       1
   33816   33834   33822   33840       1   33813   33804   33807   33819       1
   33813   33828   33843   33861       1   33813   33831   33852   33870       1
   33810   33804   33807   33819       1   33810   33822   33834   33858       1
   33810   33825   33843   33861       1   33807   33816   33834   33858       1
   33804   33807   33816   33837       1   33804   33810   33822   33840       1
   33804   33810   33825   33846       1   33804   33813   33831   33855       1
   34014   34002   34008   34017       1   34011   33999   34008   34017       1
   34005   33993   34002   34008       1   34005   33993   34002   34014       1
   34002   34008   33999   34011       1   33999   34008   34002   34014       1
   33996   33984   33990   33999       1   33993   34002   34008   34017       1
   33990   33981   33993   34005       1   33990   33999   34008   34017       1
   33987   33975   33984   33990       1   33987   33975   33984   33996       1
   33984   33990   33999   34011       1   33981   33990   33984   33996       1
   33981   33990   33999   34011       1   33981   33993   34002   34014       1
   33978   33960   33972   33981       1   33972   33957   33975   33987       1
   33972   33981   33993   34005       1   33963   33939   33960   33972       1
   33963   33939   33960   33978       1   33957   33936   33951   33969       1
   33957   33972   33960   33978       1   33957   33975   33984   33996       1
   33954   33933   33951   33969       1   33948   33930   33942   33966       1
   33945   33924   33942   33966       1   33936   33921   33939   33963       1
   33936   33951   33933   33954       1   33936   33957   33975   33987       1
   33933   33918   33930   33948       1   33930   33918   33933   33954       1
   33930   33942   33924   33945       1   33927   33915   33924   33942       1
   33927   33915   33924   33945       1   33924   33942   33930   33948       1
   33921   33912   33915   33927       1   33921   33936   33951   33969       1
   33921   33939   33960   33978       1   33918   33912   33915   33927       1
   33918   33930   33942   33966       1   33918   33933   33951   33969       1
   33915   33924   33942   33966       1   33912   33915   33924   33945       1
   33912   33918   33930   33948       1   33912   33918   33933   33954       1
   33912   33921   33939   33963       1   34122   34110   34116   34125       1
   34119   34107   34116   34125       1   34113   34101   34110   34116       1
   34113   34101   34110   34122       1   34110   34116   34107   34119       1
   34107   34116   34110   34122       1   34104   34092   34098   34107       1
   34101   34110   34116   34125       1   34098   34089   34101   34113       1
   34098   34107   34116   34125       1   34095   34083   34092   34098       1
   34095   34083   34092   34104       1   34092   34098   34107   34119       1
   34089   34098   34092   34104       1   34089   34098   34107   34119       1
   34089   34101   34110   34122       1   34086   34068   34080   34089       1
   34080   34065   34083   34095       1   34080   34089   34101   34113       1
   34071   34047   34068   34080       1   34071   34047   34068   34086       1
   34065   34044   34059   34077       1   34065   34080   34068   34086       1
   34065   34083   34092   34104       1   34062   34041   34059   34077       1
   34056   34038   34050   34074       1   34053   34032   34050   34074       1
   34044   34029   34047   34071       1   34044   34059   34041   34062       1
   34044   34065   34083   34095       1   34041   34026   34038   34056       1
   34038   34026   34041   34062       1   34038   34050   34032   34053       1
   34035   34023   34032   34050       1   34035   34023   34032   34053       1
   34032   34050   34038   34056       1   34029   34020   34023   34035       1
   34029   34044   34059   34077       1   34029   34047   34068   34086       1
   34026   34020   34023   34035       1   34026   34038   34050   34074       1
   34026   34041   34059   34077       1   34023   34032   34050   34074       1
   34020   34023   34032   34053       1   34020   34026   34038   34056       1
   34020   34026   34041   34062       1   34020   34029   34047   34071       1
   34230   34218   34224   34233       1   34227   34215   34224   34233       1
   34221   34209   34218   34224       1   34221   34209   34218   34230       1
   34218   34224   34215   34227       1   34215   34224   34218   34230       1
   34212   34200   34206   34215       1   34209   34218   34224   34233       1
   34206   34197   34209   34221       1   34206   34215   34224   34233       1
   34203   34191   34200   34206       1   34203   34191   34200   34212       1
   34200   34206   34215   34227       1   34197   34206   34200   34212       1
   34197   34206   34215   34227       1   34197   34209   34218   34230       1
   34194   34176   34188   34197       1   34188   34173   34191   34203       1
   34188   34197   34209   34221       1   34179   34155   34176   34188       1
   34179   34155   34176   34194       1   34173   34152   34167   34185       1
   34173   34188   34176   34194       1   34173   34191   34200   34212       1
   34170   34149   34167   34185       1   34164   34146   34158   34182       1
   34161   34140   34158   34182       1   34152   34137   34155   34179       1
   34152   34167   34149   34170       1   34152   34173   34191   34203       1
   34149   34134   34146   34164       1   34146   34134   34149   34170       1
   34146   34158   34140   34161       1   34143   34131   34140   34158       1
   34143   34131   34140   34161       1   34140   34158   34146   34164       1
   34137   34128   34131   34143       1   34137   34152   34167   34185       1
   34137   34155   34176   34194       1   34134   34128   34131   34143       1
   34134   34146   34158   34182       1   34134   34149   34167   34185       1
   34131   34140   34158   34182       1   34128   34131   34140   34161       1
   34128   34134   34146   34164       1   34128   34134   34149   34170       1
   34128   34137   34155   34179       1   34338   34326   34332   34341       1
   34335   34323   34332   34341       1   34329   34317   34326   34332       1
   34329   34317   34326   34338       1   34326   34332   34323   34335       1
   34323   34332   34326   34338       1   34320   34308   34314   34323       1
   34317   34326   34332   34341       1   34314   34305   34317   34329       1
   34314   34323   34332   34341       1   34311   34299   34308   34314       1
   34311   34299   34308   34320       1   34308   34314   34323   34335       1
   34305   34314   34308   34320       1   34305   34314   34323   34335       1
   34305   34317   34326   34338       1   34302   34284   34296   34305       1
   34296   34281   34299   34311       1   34296   34305   34317   34329       1
   34287   34263   34284   34296       1   34287   34263   34284   34302       1
   34281   34260   34275   34293       1   34281   34296   34284   34302       1
   34281   34299   34308   34320       1   34278   34257   34275   34293       1
   34272   34254   34266   34290       1   34269   34248   34266   34290       1
   34260   34245   34263   34287       1   34260   34275   34257   34278       1
   34260   34281   34299   34311       1   34257   34242   34254   34272       1
   34254   34242   34257   34278       1   34254   34266   34248   34269       1
   34251   34239   34248   34266       1   34251   34239   34248   34269       1
   34248   34266   34254   34272       1   34245   34236   34239   34251       1
   34245   34260   34275   34293       1   34245   34263   34284   34302       1
   34242   34236   34239   34251       1   34242   34254   34266   34290       1
   34242   34257   34275   34293       1   34239   34248   34266   34290       1
   34236   34239   34248   34269       1   34236   34242   34254   34272       1
   34236   34242   34257   34278       1   34236   34245   34263   34287       1
   34446   34434   34440   34449       1   34443   34431   34440   34449       1
   34437   34425   34434   34440       1   34437   34425   34434   34446       1
   34434   34440   34431   34443       1   34431   34440   34434   34446       1
   34428   34416   34422   34431       1   34425   34434   34440   34449       1
   34422   34413   34425   34437       1   34422   34431   34440   34449       1
   34419   34407   34416   34422       1   34419   34407   34416   34428       1
   34416   34422   34431   34443       1   34413   34422   34416   34428       1
   34413   34422   34431   34443       1   34413   34425   34434   34446       1
   34410   34392   34404   34413       1   34404   34389   34407   34419       1
   34404   34413   34425   34437       1   34395   34371   34392   34404       1
   34395   34371   34392   34410       1   34389   34368   34383   34401       1
   34389   34404   34392   34410       1   34389   34407   34416   34428       1
   34386   34365   34383   34401       1   34380   34362   34374   34398       1
   34377   34356   34374   34398       1   34368   34353   34371   34395       1
   34368   34383   34365   34386       1   34368   34389   34407   34419       1
   34365   34350   34362   34380       1   34362   34350   34365   34386       1
   34362   34374   34356   34377       1   34359   34347   34356   34374       1
   34359   34347   34356   34377       1   34356   34374   34362   34380       1
   34353   34344   34347   34359       1   34353   34368   34383   34401       1
   34353   34371   34392   34410       1   34350   34344   34347   34359       1
   34350   34362   34374   34398       1   34350   34365   34383   34401       1
   34347   34356   34374   34398       1   34344   34347   34356   34377       1
   34344   34350   34362   34380       1   34344   34350   34365   34386       1
   34344   34353   34371   34395       1   34554   34542   34548   34557       1
   34551   34539   34548   34557       1   34545   34533   34542   34548       1
   34545   34533   34542   34554       1   34542   34548   34539   34551       1
   34539   34548   34542   34554       1   34536   34524   34530   34539       1
   34533   34542   34548   34557       1   34530   34521   34533   34545       1
   34530   34539   34548   34557       1   34527   34515   34524   34530       1
   34527   34515   34524   34536       1   34524   34530   34539   34551       1
   34521   34530   34524   34536       1   34521   34530   34539   34551       1
   34521   34533   34542   34554       1   34518   34500   34512   34521       1
   34512   34497   34515   34527       1   34512   34521   34533   34545       1
   34503   34479   34500   34512       1   34503   34479   34500   34518       1
   34497   34476   34491   34509       1   34497   34512   34500   34518       1
   34497   34515   34524   34536       1   34494   34473   34491   34509       1
   34488   34470   34482   34506       1   34485   34464   34482   34506       1
   34476   34461   34479   34503       1   34476   34491   34473   34494       1
   34476   34497   34515   34527       1   34473   34458   34470   34488       1
   34470   34458   34473   34494       1   34470   34482   34464   34485       1
   34467   34455   34464   34482       1   34467   34455   34464   34485       1
   34464   34482   34470   34488       1   34461   34452   34455   34467       1
   34461   34476   34491   34509       1   34461   34479   34500   34518       1
   34458   34452   34455   34467       1   34458   34470   34482   34506       1
   34458   34473   34491   34509       1   34455   34464   34482   34506       1
   34452   34455   34464   34485       1   34452   34458   34470   34488       1
   34452   34458   34473   34494       1   34452   34461   34479   34503       1
   34662   34650   34656   34665       1   34659   34647   34656   34665       1
   34653   34641   34650   34656       1   34653   34641   34650   34662       1
   34650   34656   34647   34659       1   34647   34656   34650   34662       1
   34644   34632   34638   34647       1   34641   34650   34656   34665       1
   34638   34629   34641   34653       1   34638   34647   34656   34665       1
   34635   34623   34632   34638       1   34635   34623   34632   34644       1
   34632   34638   34647   34659       1   34629   34638   34632   34644       1
   34629   34638   34647   34659       1   34629   34641   34650   34662       1
   34626   34608   34620   34629       1   34620   34605   34623   34635       1
   34620   34629   34641   34653       1   34611   34587   34608   34620       1
   34611   34587   34608   34626       1   34605   34584   34599   34617       1
   34605   34620   34608   34626       1   34605   34623   34632   34644       1
   34602   34581   34599   34617       1   34596   34578   34590   34614       1
   34593   34572   34590   34614       1   34584   34569   34587   34611       1
   34584   34599   34581   34602       1   34584   34605   34623   34635       1
   34581   34566   34578   34596       1   34578   34566   34581   34602       1
   34578   34590   34572   34593       1   34575   34563   34572   34590       1
   34575   34563   34572   34593       1   34572   34590   34578   34596       1
   34569   34560   34563   34575       1   34569   34584   34599   34617       1
   34569   34587   34608   34626       1   34566   34560   34563   34575       1
   34566   34578   34590   34614       1   34566   34581   34599   34617       1
   34563   34572   34590   34614       1   34560   34563   34572   34593       1
   34560   34566   34578   34596       1   34560   34566   34581   34602       1
   34560   34569   34587   34611       1   34770   34758   34764   34773       1
   34767   34755   34764   34773       1   34761   34749   34758   34764       1
   34761   34749   34758   34770       1   34758   34764   34755   34767       1
   34755   34764   34758   34770       1   34752   34740   34746   34755       1
   34749   34758   34764   34773       1   34746   34737   34749   34761       1
   34746   34755   34764   34773       1   34743   34731   34740   34746       1
   34743   34731   34740   34752       1   34740   34746   34755   34767       1
   34737   34746   34740   34752       1   34737   34746   34755   34767       1
   34737   34749   34758   34770       1   34734   34716   34728   34737       1
   34728   34713   34731   34743       1   34728   34737   34749   34761       1
   34719   34695   34716   34728       1   34719   34695   34716   34734       1
   34713   34692   34707   34725       1   34713   34728   34716   34734       1
   34713   34731   34740   34752       1   34710   34689   34707   34725       1
   34704   34686   34698   34722       1   34701   34680   34698   34722       1
   34692   34677   34695   34719       1   34692   34707   34689   34710       1
   34692   34713   34731   34743       1   34689   34674   34686   34704       1
   34686   34674   34689   34710       1   34686   34698   34680   34701       1
   34683   34671   34680   34698       1   34683   34671   34680   34701       1
   34680   34698   34686   34704       1   34677   34668   34671   34683       1
   34677   34692   34707   34725       1   34677   34695   34716   34734       1
   34674   34668   34671   34683       1   34674   34686   34698   34722       1
   34674   34689   34707   34725       1   34671   34680   34698   34722       1
   34668   34671   34680   34701       1   34668   34674   34686   34704       1
   34668   34674   34689   34710       1   34668   34677   34695   34719       1
   34878   34866   34872   34881       1   34875   34863   34872   34881       1
   34869   34857   34866   34872       1   34869   34857   34866   34878       1
   34866   34872   34863   34875       1   34863   34872   34866   34878       1
   34860   34848   34854   34863       1   34857   34866   34872   34881       1
   34854   34845   34857   34869       1   34854   34863   34872   34881       1
   34851   34839   34848   34854       1   34851   34839   34848   34860       1
   34848   34854   34863   34875       1   34845   34854   34848   34860       1
   34845   34854   34863   34875       1   34845   34857   34866   34878       1
   34842   34824   34836   34845       1   34836   34821   34839   34851       1
   34836   34845   34857   34869       1   34827   34803   34824   34836       1
   34827   34803   34824   34842       1   34821   34800   34815   34833       1
   34821   34836   34824   34842       1   34821   34839   34848   34860       1
   34818   34797   34815   34833       1   34812   34794   34806   34830       1
   34809   34788   34806   34830       1   34800   34785   34803   34827       1
   34800   34815   34797   34818       1   34800   34821   34839   34851       1
   34797   34782   34794   34812       1   34794   34782   34797   34818       1
   34794   34806   34788   34809       1   34791   34779   34788   34806       1
   34791   34779   34788   34809       1   34788   34806   34794   34812       1
   34785   34776   34779   34791       1   34785   34800   34815   34833       1
   34785   34803   34824   34842       1   34782   34776   34779   34791       1
   34782   34794   34806   34830       1   34782   34797   34815   34833       1
   34779   34788   34806   34830       1   34776   34779   34788   34809       1
   34776   34782   34794   34812       1   34776   34782   34797   34818       1
   34776   34785   34803   34827       1   34986   34974   34980   34989       1
   34983   34971   34980   34989       1   34977   34965   34974   34980       1
   34977   34965   34974   34986       1   34974   34980   34971   34983       1
   34971   34980   34974   34986       1   34968   34956   34962   34971       1
   34965   34974   34980   34989       1   34962   34953   34965   34977       1
   34962   34971   34980   34989       1   34959   34947   34956   34962       1
   34959   34947   34956   34968       1   34956   34962   34971   34983       1
   34953   34962   34956   34968       1   34953   34962   34971   34983       1
   34953   34965   34974   34986       1   34950   34932   34944   34953       1
   34944   34929   34947   34959       1   34944   34953   34965   34977       1
   34935   34911   34932   34944       1   34935   34911   34932   34950       1
   34929   34908   34923   34941       1   34929   34944   34932   34950       1
   34929   34947   34956   34968       1   34926   34905   34923   34941       1
   34920   34902   34914   34938       1   34917   34896   34914   34938       1
   34908   34893   34911   34935       1   34908   34923   34905   34926       1
   34908   34929   34947   34959       1   34905   34890   34902   34920       1
   34902   34890   34905   34926       1   34902   34914   34896   34917       1
   34899   34887   34896   34914       1   34899   34887   34896   34917       1
   34896   34914   34902   34920       1   34893   34884   34887   34899       1
   34893   34908   34923   34941       1   34893   34911   34932   34950       1
   34890   34884   34887   34899       1   34890   34902   34914   34938       1
   34890   34905   34923   34941       1   34887   34896   34914   34938       1
   34884   34887   34896   34917       1   34884   34890   34902   34920       1
   34884   34890   34905   34926       1   34884   34893   34911   34935       1
   35094   35082   35088   35097       1   35091   35079   35088   35097       1
   35085   35073   35082   35088       1   35085   35073   35082   35094       1
   35082   35088   35079   35091       1   35079   35088   35082   35094       1
   35076   35064   35070   35079       1   35073   35082   35088   35097       1
   35070   35061   35073   35085       1   35070   35079   35088   35097       1
   35067   35055   35064   35070       1   35067   35055   35064   35076       1
   35064   35070   35079   35091       1   35061   35070   35064   35076       1
   35061   35070   35079   35091       1   35061   35073   35082   35094       1
   35058   35040   35052   35061       1   35052   35037   35055   35067       1
   35052   35061   35073   35085       1   35043   35019   35040   35052       1
   35043   35019   35040   35058       1   35037   35016   35031   35049       1
   35037   35052   35040   35058       1   35037   35055   35064   35076       1
   35034   35013   35031   35049       1   35028   35010   35022   35046       1
   35025   35004   35022   35046       1   35016   35001   35019   35043       1
   35016   35031   35013   35034       1   35016   35037   35055   35067       1
   35013   34998   35010   35028       1   35010   34998   35013   35034       1
   35010   35022   35004   35025       1   35007   34995   35004   35022       1
   35007   34995   35004   35025       1   35004   35022   35010   35028       1
   35001   34992   34995   35007       1   35001   35016   35031   35049       1
   35001   35019   35040   35058       1   34998   34992   34995   35007       1
   34998   35010   35022   35046       1   34998   35013   35031   35049       1
   34995   35004   35022   35046       1   34992   34995   35004   35025       1
   34992   34998   35010   35028       1   34992   34998   35013   35034       1
   34992   35001   35019   35043       1   35202   35190   35196   35205       1
   35199   35187   35196   35205       1   35193   35181   35190   35196       1
   35193   35181   35190   35202       1   35190   35196   35187   35199       1
   35187   35196   35190   35202       1   35184   35172   35178   35187       1
   35181   35190   35196   35205       1   35178   35169   35181   35193       1
   35178   35187   35196   35205       1   35175   35163   35172   35178       1
   35175   35163   35172   35184       1   35172   35178   35187   35199       1
   35169   35178   35172   35184       1   35169   35178   35187   35199       1
   35169   35181   35190   35202       1   35166   35148   35160   35169       1
   35160   35145   35163   35175       1   35160   35169   35181   35193       1
   35151   35127   35148   35160       1   35151   35127   35148   35166       1
   35145   35124   35139   35157       1   35145   35160   35148   35166       1
   35145   35163   35172   35184       1   35142   35121   35139   35157       1
   35136   35118   35130   35154       1   35133   35112   35130   35154       1
   35124   35109   35127   35151       1   35124   35139   35121   35142       1
   35124   35145   35163   35175       1   35121   35106   35118   35136       1
   35118   35106   35121   35142       1   35118   35130   35112   35133       1
   35115   35103   35112   35130       1   35115   35103   35112   35133       1
   35112   35130   35118   35136       1   35109   35100   35103   35115       1
   35109   35124   35139   35157       1   35109   35127   35148   35166       1
   35106   35100   35103   35115       1   35106   35118   35130   35154       1
   35106   35121   35139   35157       1   35103   35112   35130   35154       1
   35100   35103   35112   35133       1   35100   35106   35118   35136       1
   35100   35106   35121   35142       1   35100   35109   35127   35151       1
   35310   35298   35304   35313       1   35307   35295   35304   35313       1
   35301   35289   35298   35304       1   35301   35289   35298   35310       1
   35298   35304   35295   35307       1   35295   35304   35298   35310       1
   35292   35280   35286   35295       1   35289   35298   35304   35313       1
   35286   35277   35289   35301       1   35286   35295   35304   35313       1
   35283   35271   35280   35286       1   35283   35271   35280   35292       1
   35280   35286   35295   35307       1   35277   35286   35280   35292       1
   35277   35286   35295   35307       1   35277   35289   35298   35310       1
   35274   35256   35268   35277       1   35268   35253   35271   35283       1
   35268   35277   35289   35301       1   35259   35235   35256   35268       1
   35259   35235   35256   35274       1   35253   35232   35247   35265       1
   35253   35268   35256   35274       1   35253   35271   35280   35292       1
   35250   35229   35247   35265       1   35244   35226   35238   35262       1
   35241   35220   35238   35262       1   35232   35217   35235   35259       1
   35232   35247   35229   35250       1   35232   35253   35271   35283       1
   35229   35214   35226   35244       1   35226   35214   35229   35250       1
   35226   35238   35220   35241       1   35223   35211   35220   35238       1
   35223   35211   35220   35241       1   35220   35238   35226   35244       1
   35217   35208   35211   35223       1   35217   35232   35247   35265       1
   35217   35235   35256   35274       1   35214   35208   35211   35223       1
   35214   35226   35238   35262       1   35214   35229   35247   35265       1
   35211   35220   35238   35262       1   35208   35211   35220   35241       1
   35208   35214   35226   35244       1   35208   35214   35229   35250       1
   35208   35217   35235   35259       1   35418   35406   35412   35421       1
   35415   35403   35412   35421       1   35409   35397   35406   35412       1
   35409   35397   35406   35418       1   35406   35412   35403   35415       1
   35403   35412   35406   35418       1   35400   35388   35394   35403       1
   35397   35406   35412   35421       1   35394   35385   35397   35409       1
   35394   35403   35412   35421       1   35391   35379   35388   35394       1
   35391   35379   35388   35400       1   35388   35394   35403   35415       1
   35385   35394   35388   35400       1   35385   35394   35403   35415       1
   35385   35397   35406   35418       1   35382   35364   35376   35385       1
   35376   35361   35379   35391       1   35376   35385   35397   35409       1
   35367   35343   35364   35376       1   35367   35343   35364   35382       1
   35361   35340   35355   35373       1   35361   35376   35364   35382       1
   35361   35379   35388   35400       1   35358   35337   35355   35373       1
   35352   35334   35346   35370       1   35349   35328   35346   35370       1
   35340   35325   35343   35367       1   35340   35355   35337   35358       1
   35340   35361   35379   35391       1   35337   35322   35334   35352       1
   35334   35322   35337   35358       1   35334   35346   35328   35349       1
   35331   35319   35328   35346       1   35331   35319   35328   35349       1
   35328   35346   35334   35352       1   35325   35316   35319   35331       1
   35325   35340   35355   35373       1   35325   35343   35364   35382       1
   35322   35316   35319   35331       1   35322   35334   35346   35370       1
   35322   35337   35355   35373       1   35319   35328   35346   35370       1
   35316   35319   35328   35349       1   35316   35322   35334   35352       1
   35316   35322   35337   35358       1   35316   35325   35343   35367       1
   35526   35514   35520   35529       1   35523   35511   35520   35529       1
   35517   35505   35514   35520       1   35517   35505   35514   35526       1
   35514   35520   35511   35523       1   35511   35520   35514   35526       1
   35508   35496   35502   35511       1   35505   35514   35520   35529       1
   35502   35493   35505   35517       1   35502   35511   35520   35529       1
   35499   35487   35496   35502       1   35499   35487   35496   35508       1
   35496   35502   35511   35523       1   35493   35502   35496   35508       1
   35493   35502   35511   35523       1   35493   35505   35514   35526       1
   35490   35472   35484   35493       1   35484   35469   35487   35499       1
   35484   35493   35505   35517       1   35475   35451   35472   35484       1
   35475   35451   35472   35490       1   35469   35448   35463   35481       1
   35469   35484   35472   35490       1   35469   35487   35496   35508       1
   35466   35445   35463   35481       1   35460   35442   35454   35478       1
   35457   35436   35454   35478       1   35448   35433   35451   35475       1
   35448   35463   35445   35466       1   35448   35469   35487   35499       1
   35445   35430   35442   35460       1   35442   35430   35445   35466       1
   35442   35454   35436   35457       1   35439   35427   35436   35454       1
   35439   35427   35436   35457       1   35436   35454   35442   35460       1
   35433   35424   35427   35439       1   35433   35448   35463   35481       1
   35433   35451   35472   35490       1   35430   35424   35427   35439       1
   35430   35442   35454   35478       1   35430   35445   35463   35481       1
   35427   35436   35454   35478       1   35424   35427   35436   35457       1
   35424   35430   35442   35460       1   35424   35430   35445   35466       1
   35424   35433   35451   35475       1   35634   35622   35628   35637       1
   35631   35619   35628   35637       1   35625   35613   35622   35628       1
   35625   35613   35622   35634       1   35622   35628   35619   35631       1
   35619   35628   35622   35634       1   35616   35604   35610   35619       1
   35613   35622   35628   35637       1   35610   35601   35613   35625       1
   35610   35619   35628   35637       1   35607   35595   35604   35610       1
   35607   35595   35604   35616       1   35604   35610   35619   35631       1
   35601   35610   35604   35616       1   35601   35610   35619   35631       1
   35601   35613   35622   35634       1   35598   35580   35592   35601       1
   35592   35577   35595   35607       1   35592   35601   35613   35625       1
   35583   35559   35580   35592       1   35583   35559   35580   35598       1
   35577   35556   35571   35589       1   35577   35592   35580   35598       1
   35577   35595   35604   35616       1   35574   35553   35571   35589       1
   35568   35550   35562   35586       1   35565   35544   35562   35586       1
   35556   35541   35559   35583       1   35556   35571   35553   35574       1
   35556   35577   35595   35607       1   35553   35538   35550   35568       1
   35550   35538   35553   35574       1   35550   35562   35544   35565       1
   35547   35535   35544   35562       1   35547   35535   35544   35565       1
   35544   35562   35550   35568       1   35541   35532   35535   35547       1
   35541   35556   35571   35589       1   35541   35559   35580   35598       1
   35538   35532   35535   35547       1   35538   35550   35562   35586       1
   35538   35553   35571   35589       1   35535   35544   35562   35586       1
   35532   35535   35544   35565       1   35532   35538   35550   35568       1
   35532   35538   35553   35574       1   35532   35541   35559   35583       1
   35742   35730   35736   35745       1   35739   35727   35736   35745       1
   35733   35721   35730   35736       1   35733   35721   35730   35742       1
   35730   35736   35727   35739       1   35727   35736   35730   35742       1
   35724   35712   35718   35727       1   35721   35730   35736   35745       1
   35718   35709   35721   35733       1   35718   35727   35736   35745       1
   35715   35703   35712   35718       1   35715   35703   35712   35724       1
   35712   35718   35727   35739       1   35709   35718   35712   35724       1
   35709   35718   35727   35739       1   35709   35721   35730   35742       1
   35706   35688   35700   35709       1   35700   35685   35703   35715       1
   35700   35709   35721   35733       1   35691   35667   35688   35700       1
   35691   35667   35688   35706       1   35685   35664   35679   35697       1
   35685   35700   35688   35706       1   35685   35703   35712   35724       1
   35682   35661   35679   35697       1   35676   35658   35670   35694       1
   35673   35652   35670   35694       1   35664   35649   35667   35691       1
   35664   35679   35661   35682       1   35664   35685   35703   35715       1
   35661   35646   35658   35676       1   35658   35646   35661   35682       1
   35658   35670   35652   35673       1   35655   35643   35652   35670       1
   35655   35643   35652   35673       1   35652   35670   35658   35676       1
   35649   35640   35643   35655       1   35649   35664   35679   35697       1
   35649   35667   35688   35706       1   35646   35640   35643   35655       1
   35646   35658   35670   35694       1   35646   35661   35679   35697       1
   35643   35652   35670   35694       1   35640   35643   35652   35673       1
   35640   35646   35658   35676       1   35640   35646   35661   35682       1
   35640   35649   35667   35691       1   35850   35838   35844   35853       1
   35847   35835   35844   35853       1   35841   35829   35838   35844       1
   35841   35829   35838   35850       1   35838   35844   35835   35847       1
   35835   35844   35838   35850       1   35832   35820   35826   35835       1
   35829   35838   35844   35853       1   35826   35817   35829   35841       1
   35826   35835   35844   35853       1   35823   35811   35820   35826       1
   35823   35811   35820   35832       1   35820   35826   35835   35847       1
   35817   35826   35820   35832       1   35817   35826   35835   35847       1
   35817   35829   35838   35850       1   35814   35796   35808   35817       1
   35808   35793   35811   35823       1   35808   35817   35829   35841       1
   35799   35775   35796   35808       1   35799   35775   35796   35814       1
   35793   35772   35787   35805       1   35793   35808   35796   35814       1
   35793   35811   35820   35832       1   35790   35769   35787   35805       1
   35784   35766   35778   35802       1   35781   35760   35778   35802       1
   35772   35757   35775   35799       1   35772   35787   35769   35790       1
   35772   35793   35811   35823       1   35769   35754   35766   35784       1
   35766   35754   35769   35790       1   35766   35778   35760   35781       1
   35763   35751   35760   35778       1   35763   35751   35760   35781       1
   35760   35778   35766   35784       1   35757   35748   35751   35763       1
   35757   35772   35787   35805       1   35757   35775   35796   35814       1
   35754   35748   35751   35763       1   35754   35766   35778   35802       1
   35754   35769   35787   35805       1   35751   35760   35778   35802       1
   35748   35751   35760   35781       1   35748   35754   35766   35784       1
   35748   35754   35769   35790       1   35748   35757   35775   35799       1
   35958   35946   35952   35961       1   35955   35943   35952   35961       1
   35949   35937   35946   35952       1   35949   35937   35946   35958       1
   35946   35952   35943   35955       1   35943   35952   35946   35958       1
   35940   35928   35934   35943       1   35937   35946   35952   35961       1
   35934   35925   35937   35949       1   35934   35943   35952   35961       1
   35931   35919   35928   35934       1   35931   35919   35928   35940       1
   35928   35934   35943   35955       1   35925   35934   35928   35940       1
   35925   35934   35943   35955       1   35925   35937   35946   35958       1
   35922   35904   35916   35925       1   35916   35901   35919   35931       1
   35916   35925   35937   35949       1   35907   35883   35904   35916       1
   35907   35883   35904   35922       1   35901   35880   35895   35913       1
   35901   35916   35904   35922       1   35901   35919   35928   35940       1
   35898   35877   35895   35913       1   35892   35874   35886   35910       1
   35889   35868   35886   35910       1   35880   35865   35883   35907       1
   35880   35895   35877   35898       1   35880   35901   35919   35931       1
   35877   35862   35874   35892       1   35874   35862   35877   35898       1
   35874   35886   35868   35889       1   35871   35859   35868   35886       1
   35871   35859   35868   35889       1   35868   35886   35874   35892       1
   35865   35856   35859   35871       1   35865   35880   35895   35913       1
   35865   35883   35904   35922       1   35862   35856   35859   35871       1
   35862   35874   35886   35910       1   35862   35877   35895   35913       1
   35859   35868   35886   35910       1   35856   35859   35868   35889       1
   35856   35862   35874   35892       1   35856   35862   35877   35898       1
   35856   35865   35883   35907       1   36066   36054   36060   36069       1
   36063   36051   36060   36069       1   36057   36045   36054   36060       1
   36057   36045   36054   36066       1   36054   36060   36051   36063       1
   36051   36060   36054   36066       1   36048   36036   36042   36051       1
   36045   36054   36060   36069       1   36042   36033   36045   36057       1
   36042   36051   36060   36069       1   36039   36027   36036   36042       1
   36039   36027   36036   36048       1   36036   36042   36051   36063       1
   36033   36042   36036   36048       1   36033   36042   36051   36063       1
   36033   36045   36054   36066       1   36030   36012   36024   36033       1
   36024   36009   36027   36039       1   36024   36033   36045   36057       1
   36015   35991   36012   36024       1   36015   35991   36012   36030       1
   36009   35988   36003   36021       1   36009   36024   36012   36030       1
   36009   36027   36036   36048       1   36006   35985   36003   36021       1
   36000   35982   35994   36018       1   35997   35976   35994   36018       1
   35988   35973   35991   36015       1   35988   36003   35985   36006       1
   35988   36009   36027   36039       1   35985   35970   35982   36000       1
   35982   35970   35985   36006       1   35982   35994   35976   35997       1
   35979   35967   35976   35994       1   35979   35967   35976   35997       1
   35976   35994   35982   36000       1   35973   35964   35967   35979       1
   35973   35988   36003   36021       1   35973   35991   36012   36030       1
   35970   35964   35967   35979       1   35970   35982   35994   36018       1
   35970   35985   36003   36021       1   35967   35976   35994   36018       1
   35964   35967   35976   35997       1   35964   35970   35982   36000       1
   35964   35970   35985   36006       1   35964   35973   35991   36015       1
   36174   36162   36168   36177       1   36171   36159   36168   36177       1
   36165   36153   36162   36168       1   36165   36153   36162   36174       1
   36162   36168   36159   36171       1   36159   36168   36162   36174       1
   36156   36144   36150   36159       1   36153   36162   36168   36177       1
   36150   36141   36153   36165       1   36150   36159   36168   36177       1
   36147   36135   36144   36150       1   36147   36135   36144   36156       1
   36144   36150   36159   36171       1   36141   36150   36144   36156       1
   36141   36150   36159   36171       1   36141   36153   36162   36174       1
   36138   36120   36132   36141       1   36132   36117   36135   36147       1
   36132   36141   36153   36165       1   36123   36099   36120   36132       1
   36123   36099   36120   36138       1   36117   36096   36111   36129       1
   36117   36132   36120   36138       1   36117   36135   36144   36156       1
   36114   36093   36111   36129       1   36108   36090   36102   36126       1
   36105   36084   36102   36126       1   36096   36081   36099   36123       1
   36096   36111   36093   36114       1   36096   36117   36135   36147       1
   36093   36078   36090   36108       1   36090   36078   36093   36114       1
   36090   36102   36084   36105       1   36087   36075   36084   36102       1
   36087   36075   36084   36105       1   36084   36102   36090   36108       1
   36081   36072   36075   36087       1   36081   36096   36111   36129       1
   36081   36099   36120   36138       1   36078   36072   36075   36087       1
   36078   36090   36102   36126       1   36078   36093   36111   36129       1
   36075   36084   36102   36126       1   36072   36075   36084   36105       1
   36072   36078   36090   36108       1   36072   36078   36093   36114       1
   36072   36081   36099   36123       1   36282   36270   36276   36285       1
   36279   36267   36276   36285       1   36273   36261   36270   36276       1
   36273   36261   36270   36282       1   36270   36276   36267   36279       1
   36267   36276   36270   36282       1   36264   36252   36258   36267       1
   36261   36270   36276   36285       1   36258   36249   36261   36273       1
   36258   36267   36276   36285       1   36255   36243   36252   36258       1
   36255   36243   36252   36264       1   36252   36258   36267   36279       1
   36249   36258   36252   36264       1   36249   36258   36267   36279       1
   36249   36261   36270   36282       1   36246   36228   36240   36249       1
   36240   36225   36243   36255       1   36240   36249   36261   36273       1
   36231   36207   36228   36240       1   36231   36207   36228   36246       1
   36225   36204   36219   36237       1   36225   36240   36228   36246       1
   36225   36243   36252   36264       1   36222   36201   36219   36237       1
   36216   36198   36210   36234       1   36213   36192   36210   36234       1
   36204   36189   36207   36231       1   36204   36219   36201   36222       1
   36204   36225   36243   36255       1   36201   36186   36198   36216       1
   36198   36186   36201   36222       1   36198   36210   36192   36213       1
   36195   36183   36192   36210       1   36195   36183   36192   36213       1
   36192   36210   36198   36216       1   36189   36180   36183   36195       1
   36189   36204   36219   36237       1   36189   36207   36228   36246       1
   36186   36180   36183   36195       1   36186   36198   36210   36234       1
   36186   36201   36219   36237       1   36183   36192   36210   36234       1
   36180   36183   36192   36213       1   36180   36186   36198   36216       1
   36180   36186   36201   36222       1   36180   36189   36207   36231       1
   36390   36378   36384   36393       1   36387   36375   36384   36393       1
   36381   36369   36378   36384       1   36381   36369   36378   36390       1
   36378   36384   36375   36387       1   36375   36384   36378   36390       1
   36372   36360   36366   36375       1   36369   36378   36384   36393       1
   36366   36357   36369   36381       1   36366   36375   36384   36393       1
   36363   36351   36360   36366       1   36363   36351   36360   36372       1
   36360   36366   36375   36387       1   36357   36366   36360   36372       1
   36357   36366   36375   36387       1   36357   36369   36378   36390       1
   36354   36336   36348   36357       1   36348   36333   36351   36363       1
   36348   36357   36369   36381       1   36339   36315   36336   36348       1
   36339   36315   36336   36354       1   36333   36312   36327   36345       1
   36333   36348   36336   36354       1   36333   36351   36360   36372       1
   36330   36309   36327   36345       1   36324   36306   36318   36342       1
   36321   36300   36318   36342       1   36312   36297   36315   36339       1
   36312   36327   36309   36330       1   36312   36333   36351   36363       1
   36309   36294   36306   36324       1   36306   36294   36309   36330       1
   36306   36318   36300   36321       1   36303   36291   36300   36318       1
   36303   36291   36300   36321       1   36300   36318   36306   36324       1
   36297   36288   36291   36303       1   36297   36312   36327   36345       1
   36297   36315   36336   36354       1   36294   36288   36291   36303       1
   36294   36306   36318   36342       1   36294   36309   36327   36345       1
   36291   36300   36318   36342       1   36288   36291   36300   36321       1
   36288   36294   36306   36324       1   36288   36294   36309   36330       1
   36288   36297   36315   36339       1   36498   36486   36492   36501       1
   36495   36483   36492   36501       1   36489   36477   36486   36492       1
   36489   36477   36486   36498       1   36486   36492   36483   36495       1
   36483   36492   36486   36498       1   36480   36468   36474   36483       1
   36477   36486   36492   36501       1   36474   36465   36477   36489       1
   36474   36483   36492   36501       1   36471   36459   36468   36474       1
   36471   36459   36468   36480       1   36468   36474   36483   36495       1
   36465   36474   36468   36480       1   36465   36474   36483   36495       1
   36465   36477   36486   36498       1   36462   36444   36456   36465       1
   36456   36441   36459   36471       1   36456   36465   36477   36489       1
   36447   36423   36444   36456       1   36447   36423   36444   36462       1
   36441   36420   36435   36453       1   36441   36456   36444   36462       1
   36441   36459   36468   36480       1   36438   36417   36435   36453       1
   36432   36414   36426   36450       1   36429   36408   36426   36450       1
   36420   36405   36423   36447       1   36420   36435   36417   36438       1
   36420   36441   36459   36471       1   36417   36402   36414   36432       1
   36414   36402   36417   36438       1   36414   36426   36408   36429       1
   36411   36399   36408   36426       1   36411   36399   36408   36429       1
   36408   36426   36414   36432       1   36405   36396   36399   36411       1
   36405   36420   36435   36453       1   36405   36423   36444   36462       1
   36402   36396   36399   36411       1   36402   36414   36426   36450       1
   36402   36417   36435   36453       1   36399   36408   36426   36450       1
   36396   36399   36408   36429       1   36396   36402   36414   36432       1
   36396   36402   36417   36438       1   36396   36405   36423   36447       1
   36606   36594   36600   36609       1   36603   36591   36600   36609       1
   36597   36585   36594   36600       1   36597   36585   36594   36606       1
   36594   36600   36591   36603       1   36591   36600   36594   36606       1
   36588   36576   36582   36591       1   36585   36594   36600   36609       1
   36582   36573   36585   36597       1   36582   36591   36600   36609       1
   36579   36567   36576   36582       1   36579   36567   36576   36588       1
   36576   36582   36591   36603       1   36573   36582   36576   36588       1
   36573   36582   36591   36603       1   36573   36585   36594   36606       1
   36570   36552   36564   36573       1   36564   36549   36567   36579       1
   36564   36573   36585   36597       1   36555   36531   36552   36564       1
   36555   36531   36552   36570       1   36549   36528   36543   36561       1
   36549   36564   36552   36570       1   36549   36567   36576   36588       1
   36546   36525   36543   36561       1   36540   36522   36534   36558       1
   36537   36516   36534   36558       1   36528   36513   36531   36555       1
   36528   36543   36525   36546       1   36528   36549   36567   36579       1
   36525   36510   36522   36540       1   36522   36510   36525   36546       1
   36522   36534   36516   36537       1   36519   36507   36516   36534       1
   36519   36507   36516   36537       1   36516   36534   36522   36540       1
   36513   36504   36507   36519       1   36513   36528   36543   36561       1
   36513   36531   36552   36570       1   36510   36504   36507   36519       1
   36510   36522   36534   36558       1   36510   36525   36543   36561       1
   36507   36516   36534   36558       1   36504   36507   36516   36537       1
   36504   36510   36522   36540       1   36504   36510   36525   36546       1
   36504   36513   36531   36555       1   36714   36702   36708   36717       1
   36711   36699   36708   36717       1   36705   36693   36702   36708       1
   36705   36693   36702   36714       1   36702   36708   36699   36711       1
   36699   36708   36702   36714       1   36696   36684   36690   36699       1
   36693   36702   36708   36717       1   36690   36681   36693   36705       1
   36690   36699   36708   36717       1   36687   36675   36684   36690       1
   36687   36675   36684   36696       1   36684   36690   36699   36711       1
   36681   36690   36684   36696       1   36681   36690   36699   36711       1
   36681   36693   36702   36714       1   36678   36660   36672   36681       1
   36672   36657   36675   36687       1   36672   36681   36693   36705       1
   36663   36639   36660   36672       1   36663   36639   36660   36678       1
   36657   36636   36651   36669       1   36657   36672   36660   36678       1
   36657   36675   36684   36696       1   36654   36633   36651   36669       1
   36648   36630   36642   36666       1   36645   36624   36642   36666       1
   36636   36621   36639   36663       1   36636   36651   36633   36654       1
   36636   36657   36675   36687       1   36633   36618   36630   36648       1
   36630   36618   36633   36654       1   36630   36642   36624   36645       1
   36627   36615   36624   36642       1   36627   36615   36624   36645       1
   36624   36642   36630   36648       1   36621   36612   36615   36627       1
   36621   36636   36651   36669       1   36621   36639   36660   36678       1
   36618   36612   36615   36627       1   36618   36630   36642   36666       1
   36618   36633   36651   36669       1   36615   36624   36642   36666       1
   36612   36615   36624   36645       1   36612   36618   36630   36648       1
   36612   36618   36633   36654       1   36612   36621   36639   36663       1
   36822   36810   36816   36825       1   36819   36807   36816   36825       1
   36813   36801   36810   36816       1   36813   36801   36810   36822       1
   36810   36816   36807   36819       1   36807   36816   36810   36822       1
   36804   36792   36798   36807       1   36801   36810   36816   36825       1
   36798   36789   36801   36813       1   36798   36807   36816   36825       1
   36795   36783   36792   36798       1   36795   36783   36792   36804       1
   36792   36798   36807   36819       1   36789   36798   36792   36804       1
   36789   36798   36807   36819       1   36789   36801   36810   36822       1
   36786   36768   36780   36789       1   36780   36765   36783   36795       1
   36780   36789   36801   36813       1   36771   36747   36768   36780       1
   36771   36747   36768   36786       1   36765   36744   36759   36777       1
   36765   36780   36768   36786       1   36765   36783   36792   36804       1
   36762   36741   36759   36777       1   36756   36738   36750   36774       1
   36753   36732   36750   36774       1   36744   36729   36747   36771       1
   36744   36759   36741   36762       1   36744   36765   36783   36795       1
   36741   36726   36738   36756       1   36738   36726   36741   36762       1
   36738   36750   36732   36753       1   36735   36723   36732   36750       1
   36735   36723   36732   36753       1   36732   36750   36738   36756       1
   36729   36720   36723   36735       1   36729   36744   36759   36777       1
   36729   36747   36768   36786       1   36726   36720   36723   36735       1
   36726   36738   36750   36774       1   36726   36741   36759   36777       1
   36723   36732   36750   36774       1   36720   36723   36732   36753       1
   36720   36726   36738   36756       1   36720   36726   36741   36762       1
   36720   36729   36747   36771       1   36930   36918   36924   36933       1
   36927   36915   36924   36933       1   36921   36909   36918   36924       1
   36921   36909   36918   36930       1   36918   36924   36915   36927       1
   36915   36924   36918   36930       1   36912   36900   36906   36915       1
   36909   36918   36924   36933       1   36906   36897   36909   36921       1
   36906   36915   36924   36933       1   36903   36891   36900   36906       1
   36903   36891   36900   36912       1   36900   36906   36915   36927       1
   36897   36906   36900   36912       1   36897   36906   36915   36927       1
   36897   36909   36918   36930       1   36894   36876   36888   36897       1
   36888   36873   36891   36903       1   36888   36897   36909   36921       1
   36879   36855   36876   36888       1   36879   36855   36876   36894       1
   36873   36852   36867   36885       1   36873   36888   36876   36894       1
   36873   36891   36900   36912       1   36870   36849   36867   36885       1
   36864   36846   36858   36882       1   36861   36840   36858   36882       1
   36852   36837   36855   36879       1   36852   36867   36849   36870       1
   36852   36873   36891   36903       1   36849   36834   36846   36864       1
   36846   36834   36849   36870       1   36846   36858   36840   36861       1
   36843   36831   36840   36858       1   36843   36831   36840   36861       1
   36840   36858   36846   36864       1   36837   36828   36831   36843       1
   36837   36852   36867   36885       1   36837   36855   36876   36894       1
   36834   36828   36831   36843       1   36834   36846   36858   36882       1
   36834   36849   36867   36885       1   36831   36840   36858   36882       1
   36828   36831   36840   36861       1   36828   36834   36846   36864       1
   36828   36834   36849   36870       1   36828   36837   36855   36879       1
   37038   37026   37032   37041       1   37035   37023   37032   37041       1
   37029   37017   37026   37032       1   37029   37017   37026   37038       1
   37026   37032   37023   37035       1   37023   37032   37026   37038       1
   37020   37008   37014   37023       1   37017   37026   37032   37041       1
   37014   37005   37017   37029       1   37014   37023   37032   37041       1
   37011   36999   37008   37014       1   37011   36999   37008   37020       1
   37008   37014   37023   37035       1   37005   37014   37008   37020       1
   37005   37014   37023   37035       1   37005   37017   37026   37038       1
   37002   36984   36996   37005       1   36996   36981   36999   37011       1
   36996   37005   37017   37029       1   36987   36963   36984   36996       1
   36987   36963   36984   37002       1   36981   36960   36975   36993       1
   36981   36996   36984   37002       1   36981   36999   37008   37020       1
   36978   36957   36975   36993       1   36972   36954   36966   36990       1
   36969   36948   36966   36990       1   36960   36945   36963   36987       1
   36960   36975   36957   36978       1   36960   36981   36999   37011       1
   36957   36942   36954   36972       1   36954   36942   36957   36978       1
   36954   36966   36948   36969       1   36951   36939   36948   36966       1
   36951   36939   36948   36969       1   36948   36966   36954   36972       1
   36945   36936   36939   36951       1   36945   36960   36975   36993       1
   36945   36963   36984   37002       1   36942   36936   36939   36951       1
   36942   36954   36966   36990       1   36942   36957   36975   36993       1
   36939   36948   36966   36990       1   36936   36939   36948   36969       1
   36936   36942   36954   36972       1   36936   36942   36957   36978       1
   36936   36945   36963   36987       1   37146   37134   37140   37149       1
   37143   37131   37140   37149       1   37137   37125   37134   37140       1
   37137   37125   37134   37146       1   37134   37140   37131   37143       1
   37131   37140   37134   37146       1   37128   37116   37122   37131       1
   37125   37134   37140   37149       1   37122   37113   37125   37137       1
   37122   37131   37140   37149       1   37119   37107   37116   37122       1
   37119   37107   37116   37128       1   37116   37122   37131   37143       1
   37113   37122   37116   37128       1   37113   37122   37131   37143       1
   37113   37125   37134   37146       1   37110   37092   37104   37113       1
   37104   37089   37107   37119       1   37104   37113   37125   37137       1
   37095   37071   37092   37104       1   37095   37071   37092   37110       1
   37089   37068   37083   37101       1   37089   37104   37092   37110       1
   37089   37107   37116   37128       1   37086   37065   37083   37101       1
   37080   37062   37074   37098       1   37077   37056   37074   37098       1
   37068   37053   37071   37095       1   37068   37083   37065   37086       1
   37068   37089   37107   37119       1   37065   37050   37062   37080       1
   37062   37050   37065   37086       1   37062   37074   37056   37077       1
   37059   37047   37056   37074       1   37059   37047   37056   37077       1
   37056   37074   37062   37080       1   37053   37044   37047   37059       1
   37053   37068   37083   37101       1   37053   37071   37092   37110       1
   37050   37044   37047   37059       1   37050   37062   37074   37098       1
   37050   37065   37083   37101       1   37047   37056   37074   37098       1
   37044   37047   37056   37077       1   37044   37050   37062   37080       1
   37044   37050   37065   37086       1   37044   37053   37071   37095       1
   37254   37242   37248   37257       1   37251   37239   37248   37257       1
   37245   37233   37242   37248       1   37245   37233   37242   37254       1
   37242   37248   37239   37251       1   37239   37248   37242   37254       1
   37236   37224   37230   37239       1   37233   37242   37248   37257       1
   37230   37221   37233   37245       1   37230   37239   37248   37257       1
   37227   37215   37224   37230       1   37227   37215   37224   37236       1
   37224   37230   37239   37251       1   37221   37230   37224   37236       1
   37221   37230   37239   37251       1   37221   37233   37242   37254       1
   37218   37200   37212   37221       1   37212   37197   37215   37227       1
   37212   37221   37233   37245       1   37203   37179   37200   37212       1
   37203   37179   37200   37218       1   37197   37176   37191   37209       1
   37197   37212   37200   37218       1   37197   37215   37224   37236       1
   37194   37173   37191   37209       1   37188   37170   37182   37206       1
   37185   37164   37182   37206       1   37176   37161   37179   37203       1
   37176   37191   37173   37194       1   37176   37197   37215   37227       1
   37173   37158   37170   37188       1   37170   37158   37173   37194       1
   37170   37182   37164   37185       1   37167   37155   37164   37182       1
   37167   37155   37164   37185       1   37164   37182   37170   37188       1
   37161   37152   37155   37167       1   37161   37176   37191   37209       1
   37161   37179   37200   37218       1   37158   37152   37155   37167       1
   37158   37170   37182   37206       1   37158   37173   37191   37209       1
   37155   37164   37182   37206       1   37152   37155   37164   37185       1
   37152   37158   37170   37188       1   37152   37158   37173   37194       1
   37152   37161   37179   37203       1   37362   37350   37356   37365       1
   37359   37347   37356   37365       1   37353   37341   37350   37356       1
   37353   37341   37350   37362       1   37350   37356   37347   37359       1
   37347   37356   37350   37362       1   37344   37332   37338   37347       1
   37341   37350   37356   37365       1   37338   37329   37341   37353       1
   37338   37347   37356   37365       1   37335   37323   37332   37338       1
   37335   37323   37332   37344       1   37332   37338   37347   37359       1
   37329   37338   37332   37344       1   37329   37338   37347   37359       1
   37329   37341   37350   37362       1   37326   37308   37320   37329       1
   37320   37305   37323   37335       1   37320   37329   37341   37353       1
   37311   37287   37308   37320       1   37311   37287   37308   37326       1
   37305   37284   37299   37317       1   37305   37320   37308   37326       1
   37305   37323   37332   37344       1   37302   37281   37299   37317       1
   37296   37278   37290   37314       1   37293   37272   37290   37314       1
   37284   37269   37287   37311       1   37284   37299   37281   37302       1
   37284   37305   37323   37335       1   37281   37266   37278   37296       1
   37278   37266   37281   37302       1   37278   37290   37272   37293       1
   37275   37263   37272   37290       1   37275   37263   37272   37293       1
   37272   37290   37278   37296       1   37269   37260   37263   37275       1
   37269   37284   37299   37317       1   37269   37287   37308   37326       1
   37266   37260   37263   37275       1   37266   37278   37290   37314       1
   37266   37281   37299   37317       1   37263   37272   37290   37314       1
   37260   37263   37272   37293       1   37260   37266   37278   37296       1
   37260   37266   37281   37302       1   37260   37269   37287   37311       1
   37470   37458   37464   37473       1   37467   37455   37464   37473       1
   37461   37449   37458   37464       1   37461   37449   37458   37470       1
   37458   37464   37455   37467       1   37455   37464   37458   37470       1
   37452   37440   37446   37455       1   37449   37458   37464   37473       1
   37446   37437   37449   37461       1   37446   37455   37464   37473       1
   37443   37431   37440   37446       1   37443   37431   37440   37452       1
   37440   37446   37455   37467       1   37437   37446   37440   37452       1
   37437   37446   37455   37467       1   37437   37449   37458   37470       1
   37434   37416   37428   37437       1   37428   37413   37431   37443       1
   37428   37437   37449   37461       1   37419   37395   37416   37428       1
   37419   37395   37416   37434       1   37413   37392   37407   37425       1
   37413   37428   37416   37434       1   37413   37431   37440   37452       1
   37410   37389   37407   37425       1   37404   37386   37398   37422       1
   37401   37380   37398   37422       1   37392   37377   37395   37419       1
   37392   37407   37389   37410       1   37392   37413   37431   37443       1
   37389   37374   37386   37404       1   37386   37374   37389   37410       1
   37386   37398   37380   37401       1   37383   37371   37380   37398       1
   37383   37371   37380   37401       1   37380   37398   37386   37404       1
   37377   37368   37371   37383       1   37377   37392   37407   37425       1
   37377   37395   37416   37434       1   37374   37368   37371   37383       1
   37374   37386   37398   37422       1   37374   37389   37407   37425       1
   37371   37380   37398   37422       1   37368   37371   37380   37401       1
   37368   37374   37386   37404       1   37368   37374   37389   37410       1
   37368   37377   37395   37419       1   37578   37566   37572   37581       1
   37575   37563   37572   37581       1   37569   37557   37566   37572       1
   37569   37557   37566   37578       1   37566   37572   37563   37575       1
   37563   37572   37566   37578       1   37560   37548   37554   37563       1
   37557   37566   37572   37581       1   37554   37545   37557   37569       1
   37554   37563   37572   37581       1   37551   37539   37548   37554       1
   37551   37539   37548   37560       1   37548   37554   37563   37575       1
   37545   37554   37548   37560       1   37545   37554   37563   37575       1
   37545   37557   37566   37578       1   37542   37524   37536   37545       1
   37536   37521   37539   37551       1   37536   37545   37557   37569       1
   37527   37503   37524   37536       1   37527   37503   37524   37542       1
   37521   37500   37515   37533       1   37521   37536   37524   37542       1
   37521   37539   37548   37560       1   37518   37497   37515   37533       1
   37512   37494   37506   37530       1   37509   37488   37506   37530       1
   37500   37485   37503   37527       1   37500   37515   37497   37518       1
   37500   37521   37539   37551       1   37497   37482   37494   37512       1
   37494   37482   37497   37518       1   37494   37506   37488   37509       1
   37491   37479   37488   37506       1   37491   37479   37488   37509       1
   37488   37506   37494   37512       1   37485   37476   37479   37491       1
   37485   37500   37515   37533       1   37485   37503   37524   37542       1
   37482   37476   37479   37491       1   37482   37494   37506   37530       1
   37482   37497   37515   37533       1   37479   37488   37506   37530       1
   37476   37479   37488   37509       1   37476   37482   37494   37512       1
   37476   37482   37497   37518       1   37476   37485   37503   37527       1
   37686   37674   37680   37689       1   37683   37671   37680   37689       1
   37677   37665   37674   37680       1   37677   37665   37674   37686       1
   37674   37680   37671   37683       1   37671   37680   37674   37686       1
   37668   37656   37662   37671       1   37665   37674   37680   37689       1
   37662   37653   37665   37677       1   37662   37671   37680   37689       1
   37659   37647   37656   37662       1   37659   37647   37656   37668       1
   37656   37662   37671   37683       1   37653   37662   37656   37668       1
   37653   37662   37671   37683       1   37653   37665   37674   37686       1
   37650   37632   37644   37653       1   37644   37629   37647   37659       1
   37644   37653   37665   37677       1   37635   37611   37632   37644       1
   37635   37611   37632   37650       1   37629   37608   37623   37641       1
   37629   37644   37632   37650       1   37629   37647   37656   37668       1
   37626   37605   37623   37641       1   37620   37602   37614   37638       1
   37617   37596   37614   37638       1   37608   37593   37611   37635       1
   37608   37623   37605   37626       1   37608   37629   37647   37659       1
   37605   37590   37602   37620       1   37602   37590   37605   37626       1
   37602   37614   37596   37617       1   37599   37587   37596   37614       1
   37599   37587   37596   37617       1   37596   37614   37602   37620       1
   37593   37584   37587   37599       1   37593   37608   37623   37641       1
   37593   37611   37632   37650       1   37590   37584   37587   37599       1
   37590   37602   37614   37638       1   37590   37605   37623   37641       1
   37587   37596   37614   37638       1   37584   37587   37596   37617       1
   37584   37590   37602   37620       1   37584   37590   37605   37626       1
   37584   37593   37611   37635       1   37794   37782   37788   37797       1
   37791   37779   37788   37797       1   37785   37773   37782   37788       1
   37785   37773   37782   37794       1   37782   37788   37779   37791       1
   37779   37788   37782   37794       1   37776   37764   37770   37779       1
   37773   37782   37788   37797       1   37770   37761   37773   37785       1
   37770   37779   37788   37797       1   37767   37755   37764   37770       1
   37767   37755   37764   37776       1   37764   37770   37779   37791       1
   37761   37770   37764   37776       1   37761   37770   37779   37791       1
   37761   37773   37782   37794       1   37758   37740   37752   37761       1
   37752   37737   37755   37767       1   37752   37761   37773   37785       1
   37743   37719   37740   37752       1   37743   37719   37740   37758       1
   37737   37716   37731   37749       1   37737   37752   37740   37758       1
   37737   37755   37764   37776       1   37734   37713   37731   37749       1
   37728   37710   37722   37746       1   37725   37704   37722   37746       1
   37716   37701   37719   37743       1   37716   37731   37713   37734       1
   37716   37737   37755   37767       1   37713   37698   37710   37728       1
   37710   37698   37713   37734       1   37710   37722   37704   37725       1
   37707   37695   37704   37722       1   37707   37695   37704   37725       1
   37704   37722   37710   37728       1   37701   37692   37695   37707       1
   37701   37716   37731   37749       1   37701   37719   37740   37758       1
   37698   37692   37695   37707       1   37698   37710   37722   37746       1
   37698   37713   37731   37749       1   37695   37704   37722   37746       1
   37692   37695   37704   37725       1   37692   37698   37710   37728       1
   37692   37698   37713   37734       1   37692   37701   37719   37743       1
   37902   37890   37896   37905       1   37899   37887   37896   37905       1
   37893   37881   37890   37896       1   37893   37881   37890   37902       1
   37890   37896   37887   37899       1   37887   37896   37890   37902       1
   37884   37872   37878   37887       1   37881   37890   37896   37905       1
   37878   37869   37881   37893       1   37878   37887   37896   37905       1
   37875   37863   37872   37878       1   37875   37863   37872   37884       1
   37872   37878   37887   37899       1   37869   37878   37872   37884       1
   37869   37878   37887   37899       1   37869   37881   37890   37902       1
   37866   37848   37860   37869       1   37860   37845   37863   37875       1
   37860   37869   37881   37893       1   37851   37827   37848   37860       1
   37851   37827   37848   37866       1   37845   37824   37839   37857       1
   37845   37860   37848   37866       1   37845   37863   37872   37884       1
   37842   37821   37839   37857       1   37836   37818   37830   37854       1
   37833   37812   37830   37854       1   37824   37809   37827   37851       1
   37824   37839   37821   37842       1   37824   37845   37863   37875       1
   37821   37806   37818   37836       1   37818   37806   37821   37842       1
   37818   37830   37812   37833       1   37815   37803   37812   37830       1
   37815   37803   37812   37833       1   37812   37830   37818   37836       1
   37809   37800   37803   37815       1   37809   37824   37839   37857       1
   37809   37827   37848   37866       1   37806   37800   37803   37815       1
   37806   37818   37830   37854       1   37806   37821   37839   37857       1
   37803   37812   37830   37854       1   37800   37803   37812   37833       1
   37800   37806   37818   37836       1   37800   37806   37821   37842       1
   37800   37809   37827   37851       1   38010   37998   38004   38013       1
   38007   37995   38004   38013       1   38001   37989   37998   38004       1
   38001   37989   37998   38010       1   37998   38004   37995   38007       1
   37995   38004   37998   38010       1   37992   37980   37986   37995       1
   37989   37998   38004   38013       1   37986   37977   37989   38001       1
   37986   37995   38004   38013       1   37983   37971   37980   37986       1
   37983   37971   37980   37992       1   37980   37986   37995   38007       1
   37977   37986   37980   37992       1   37977   37986   37995   38007       1
   37977   37989   37998   38010       1   37974   37956   37968   37977       1
   37968   37953   37971   37983       1   37968   37977   37989   38001       1
   37959   37935   37956   37968       1   37959   37935   37956   37974       1
   37953   37932   37947   37965       1   37953   37968   37956   37974       1
   37953   37971   37980   37992       1   37950   37929   37947   37965       1
   37944   37926   37938   37962       1   37941   37920   37938   37962       1
   37932   37917   37935   37959       1   37932   37947   37929   37950       1
   37932   37953   37971   37983       1   37929   37914   37926   37944       1
   37926   37914   37929   37950       1   37926   37938   37920   37941       1
   37923   37911   37920   37938       1   37923   37911   37920   37941       1
   37920   37938   37926   37944       1   37917   37908   37911   37923       1
   37917   37932   37947   37965       1   37917   37935   37956   37974       1
   37914   37908   37911   37923       1   37914   37926   37938   37962       1
   37914   37929   37947   37965       1   37911   37920   37938   37962       1
   37908   37911   37920   37941       1   37908   37914   37926   37944       1
   37908   37914   37929   37950       1   37908   37917   37935   37959       1
   38118   38106   38112   38121       1   38115   38103   38112   38121       1
   38109   38097   38106   38112       1   38109   38097   38106   38118       1
   38106   38112   38103   38115       1   38103   38112   38106   38118       1
   38100   38088   38094   38103       1   38097   38106   38112   38121       1
   38094   38085   38097   38109       1   38094   38103   38112   38121       1
   38091   38079   38088   38094       1   38091   38079   38088   38100       1
   38088   38094   38103   38115       1   38085   38094   38088   38100       1
   38085   38094   38103   38115       1   38085   38097   38106   38118       1
   38082   38064   38076   38085       1   38076   38061   38079   38091       1
   38076   38085   38097   38109       1   38067   38043   38064   38076       1
   38067   38043   38064   38082       1   38061   38040   38055   38073       1
   38061   38076   38064   38082       1   38061   38079   38088   38100       1
   38058   38037   38055   38073       1   38052   38034   38046   38070       1
   38049   38028   38046   38070       1   38040   38025   38043   38067       1
   38040   38055   38037   38058       1   38040   38061   38079   38091       1
   38037   38022   38034   38052       1   38034   38022   38037   38058       1
   38034   38046   38028   38049       1   38031   38019   38028   38046       1
   38031   38019   38028   38049       1   38028   38046   38034   38052       1
   38025   38016   38019   38031       1   38025   38040   38055   38073       1
   38025   38043   38064   38082       1   38022   38016   38019   38031       1
   38022   38034   38046   38070       1   38022   38037   38055   38073       1
   38019   38028   38046   38070       1   38016   38019   38028   38049       1
   38016   38022   38034   38052       1   38016   38022   38037   38058       1
   38016   38025   38043   38067       1   38226   38214   38220   38229       1
   38223   38211   38220   38229       1   38217   38205   38214   38220       1
   38217   38205   38214   38226       1   38214   38220   38211   38223       1
   38211   38220   38214   38226       1   38208   38196   38202   38211       1
   38205   38214   38220   38229       1   38202   38193   38205   38217       1
   38202   38211   38220   38229       1   38199   38187   38196   38202       1
   38199   38187   38196   38208       1   38196   38202   38211   38223       1
   38193   38202   38196   38208       1   38193   38202   38211   38223       1
   38193   38205   38214   38226       1   38190   38172   38184   38193       1
   38184   38169   38187   38199       1   38184   38193   38205   38217       1
   38175   38151   38172   38184       1   38175   38151   38172   38190       1
   38169   38148   38163   38181       1   38169   38184   38172   38190       1
   38169   38187   38196   38208       1   38166   38145   38163   38181       1
   38160   38142   38154   38178       1   38157   38136   38154   38178       1
   38148   38133   38151   38175       1   38148   38163   38145   38166       1
   38148   38169   38187   38199       1   38145   38130   38142   38160       1
   38142   38130   38145   38166       1   38142   38154   38136   38157       1
   38139   38127   38136   38154       1   38139   38127   38136   38157       1
   38136   38154   38142   38160       1   38133   38124   38127   38139       1
   38133   38148   38163   38181       1   38133   38151   38172   38190       1
   38130   38124   38127   38139       1   38130   38142   38154   38178       1
   38130   38145   38163   38181       1   38127   38136   38154   38178       1
   38124   38127   38136   38157       1   38124   38130   38142   38160       1
   38124   38130   38145   38166       1   38124   38133   38151   38175       1
   38334   38322   38328   38337       1   38331   38319   38328   38337       1
   38325   38313   38322   38328       1   38325   38313   38322   38334       1
   38322   38328   38319   38331       1   38319   38328   38322   38334       1
   38316   38304   38310   38319       1   38313   38322   38328   38337       1
   38310   38301   38313   38325       1   38310   38319   38328   38337       1
   38307   38295   38304   38310       1   38307   38295   38304   38316       1
   38304   38310   38319   38331       1   38301   38310   38304   38316       1
   38301   38310   38319   38331       1   38301   38313   38322   38334       1
   38298   38280   38292   38301       1   38292   38277   38295   38307       1
   38292   38301   38313   38325       1   38283   38259   38280   38292       1
   38283   38259   38280   38298       1   38277   38256   38271   38289       1
   38277   38292   38280   38298       1   38277   38295   38304   38316       1
   38274   38253   38271   38289       1   38268   38250   38262   38286       1
   38265   38244   38262   38286       1   38256   38241   38259   38283       1
   38256   38271   38253   38274       1   38256   38277   38295   38307       1
   38253   38238   38250   38268       1   38250   38238   38253   38274       1
   38250   38262   38244   38265       1   38247   38235   38244   38262       1
   38247   38235   38244   38265       1   38244   38262   38250   38268       1
   38241   38232   38235   38247       1   38241   38256   38271   38289       1
   38241   38259   38280   38298       1   38238   38232   38235   38247       1
   38238   38250   38262   38286       1   38238   38253   38271   38289       1
   38235   38244   38262   38286       1   38232   38235   38244   38265       1
   38232   38238   38250   38268       1   38232   38238   38253   38274       1
   38232   38241   38259   38283       1   38442   38430   38436   38445       1
   38439   38427   38436   38445       1   38433   38421   38430   38436       1
   38433   38421   38430   38442       1   38430   38436   38427   38439       1
   38427   38436   38430   38442       1   38424   38412   38418   38427       1
   38421   38430   38436   38445       1   38418   38409   38421   38433       1
   38418   38427   38436   38445       1   38415   38403   38412   38418       1
   38415   38403   38412   38424       1   38412   38418   38427   38439       1
   38409   38418   38412   38424       1   38409   38418   38427   38439       1
   38409   38421   38430   38442       1   38406   38388   38400   38409       1
   38400   38385   38403   38415       1   38400   38409   38421   38433       1
   38391   38367   38388   38400       1   38391   38367   38388   38406       1
   38385   38364   38379   38397       1   38385   38400   38388   38406       1
   38385   38403   38412   38424       1   38382   38361   38379   38397       1
   38376   38358   38370   38394       1   38373   38352   38370   38394       1
   38364   38349   38367   38391       1   38364   38379   38361   38382       1
   38364   38385   38403   38415       1   38361   38346   38358   38376       1
   38358   38346   38361   38382       1   38358   38370   38352   38373       1
   38355   38343   38352   38370       1   38355   38343   38352   38373       1
   38352   38370   38358   38376       1   38349   38340   38343   38355       1
   38349   38364   38379   38397       1   38349   38367   38388   38406       1
   38346   38340   38343   38355       1   38346   38358   38370   38394       1
   38346   38361   38379   38397       1   38343   38352   38370   38394       1
   38340   38343   38352   38373       1   38340   38346   38358   38376       1
   38340   38346   38361   38382       1   38340   38349   38367   38391       1
   38550   38538   38544   38553       1   38547   38535   38544   38553       1
   38541   38529   38538   38544       1   38541   38529   38538   38550       1
   38538   38544   38535   38547       1   38535   38544   38538   38550       1
   38532   38520   38526   38535       1   38529   38538   38544   38553       1
   38526   38517   38529   38541       1   38526   38535   38544   38553       1
   38523   38511   38520   38526       1   38523   38511   38520   38532       1
   38520   38526   38535   38547       1   38517   38526   38520   38532       1
   38517   38526   38535   38547       1   38517   38529   38538   38550       1
   38514   38496   38508   38517       1   38508   38493   38511   38523       1
   38508   38517   38529   38541       1   38499   38475   38496   38508       1
   38499   38475   38496   38514       1   38493   38472   38487   38505       1
   38493   38508   38496   38514       1   38493   38511   38520   38532       1
   38490   38469   38487   38505       1   38484   38466   38478   38502       1
   38481   38460   38478   38502       1   38472   38457   38475   38499       1
   38472   38487   38469   38490       1   38472   38493   38511   38523       1
   38469   38454   38466   38484       1   38466   38454   38469   38490       1
   38466   38478   38460   38481       1   38463   38451   38460   38478       1
   38463   38451   38460   38481       1   38460   38478   38466   38484       1
   38457   38448   38451   38463       1   38457   38472   38487   38505       1
   38457   38475   38496   38514       1   38454   38448   38451   38463       1
   38454   38466   38478   38502       1   38454   38469   38487   38505       1
   38451   38460   38478   38502       1   38448   38451   38460   38481       1
   38448   38454   38466   38484       1   38448   38454   38469   38490       1
   38448   38457   38475   38499       1   38658   38646   38652   38661       1
   38655   38643   38652   38661       1   38649   38637   38646   38652       1
   38649   38637   38646   38658       1   38646   38652   38643   38655       1
   38643   38652   38646   38658       1   38640   38628   38634   38643       1
   38637   38646   38652   38661       1   38634   38625   38637   38649       1
   38634   38643   38652   38661       1   38631   38619   38628   38634       1
   38631   38619   38628   38640       1   38628   38634   38643   38655       1
   38625   38634   38628   38640       1   38625   38634   38643   38655       1
   38625   38637   38646   38658       1   38622   38604   38616   38625       1
   38616   38601   38619   38631       1   38616   38625   38637   38649       1
   38607   38583   38604   38616       1   38607   38583   38604   38622       1
   38601   38580   38595   38613       1   38601   38616   38604   38622       1
   38601   38619   38628   38640       1   38598   38577   38595   38613       1
   38592   38574   38586   38610       1   38589   38568   38586   38610       1
   38580   38565   38583   38607       1   38580   38595   38577   38598       1
   38580   38601   38619   38631       1   38577   38562   38574   38592       1
   38574   38562   38577   38598       1   38574   38586   38568   38589       1
   38571   38559   38568   38586       1   38571   38559   38568   38589       1
   38568   38586   38574   38592       1   38565   38556   38559   38571       1
   38565   38580   38595   38613       1   38565   38583   38604   38622       1
   38562   38556   38559   38571       1   38562   38574   38586   38610       1
   38562   38577   38595   38613       1   38559   38568   38586   38610       1
   38556   38559   38568   38589       1   38556   38562   38574   38592       1
   38556   38562   38577   38598       1   38556   38565   38583   38607       1
   38766   38754   38760   38769       1   38763   38751   38760   38769       1
   38757   38745   38754   38760       1   38757   38745   38754   38766       1
   38754   38760   38751   38763       1   38751   38760   38754   38766       1
   38748   38736   38742   38751       1   38745   38754   38760   38769       1
   38742   38733   38745   38757       1   38742   38751   38760   38769       1
   38739   38727   38736   38742       1   38739   38727   38736   38748       1
   38736   38742   38751   38763       1   38733   38742   38736   38748       1
   38733   38742   38751   38763       1   38733   38745   38754   38766       1
   38730   38712   38724   38733       1   38724   38709   38727   38739       1
   38724   38733   38745   38757       1   38715   38691   38712   38724       1
   38715   38691   38712   38730       1   38709   38688   38703   38721       1
   38709   38724   38712   38730       1   38709   38727   38736   38748       1
   38706   38685   38703   38721       1   38700   38682   38694   38718       1
   38697   38676   38694   38718       1   38688   38673   38691   38715       1
   38688   38703   38685   38706       1   38688   38709   38727   38739       1
   38685   38670   38682   38700       1   38682   38670   38685   38706       1
   38682   38694   38676   38697       1   38679   38667   38676   38694       1
   38679   38667   38676   38697       1   38676   38694   38682   38700       1
   38673   38664   38667   38679       1   38673   38688   38703   38721       1
   38673   38691   38712   38730       1   38670   38664   38667   38679       1
   38670   38682   38694   38718       1   38670   38685   38703   38721       1
   38667   38676   38694   38718       1   38664   38667   38676   38697       1
   38664   38670   38682   38700       1   38664   38670   38685   38706       1
   38664   38673   38691   38715       1   38874   38862   38868   38877       1
   38871   38859   38868   38877       1   38865   38853   38862   38868       1
   38865   38853   38862   38874       1   38862   38868   38859   38871       1
   38859   38868   38862   38874       1   38856   38844   38850   38859       1
   38853   38862   38868   38877       1   38850   38841   38853   38865       1
   38850   38859   38868   38877       1   38847   38835   38844   38850       1
   38847   38835   38844   38856       1   38844   38850   38859   38871       1
   38841   38850   38844   38856       1   38841   38850   38859   38871       1
   38841   38853   38862   38874       1   38838   38820   38832   38841       1
   38832   38817   38835   38847       1   38832   38841   38853   38865       1
   38823   38799   38820   38832       1   38823   38799   38820   38838       1
   38817   38796   38811   38829       1   38817   38832   38820   38838       1
   38817   38835   38844   38856       1   38814   38793   38811   38829       1
   38808   38790   38802   38826       1   38805   38784   38802   38826       1
   38796   38781   38799   38823       1   38796   38811   38793   38814       1
   38796   38817   38835   38847       1   38793   38778   38790   38808       1
   38790   38778   38793   38814       1   38790   38802   38784   38805       1
   38787   38775   38784   38802       1   38787   38775   38784   38805       1
   38784   38802   38790   38808       1   38781   38772   38775   38787       1
   38781   38796   38811   38829       1   38781   38799   38820   38838       1
   38778   38772   38775   38787       1   38778   38790   38802   38826       1
   38778   38793   38811   38829       1   38775   38784   38802   38826       1
   38772   38775   38784   38805       1   38772   38778   38790   38808       1
   38772   38778   38793   38814       1   38772   38781   38799   38823       1
   38982   38970   38976   38985       1   38979   38967   38976   38985       1
   38973   38961   38970   38976       1   38973   38961   38970   38982       1
   38970   38976   38967   38979       1   38967   38976   38970   38982       1
   38964   38952   38958   38967       1   38961   38970   38976   38985       1
   38958   38949   38961   38973       1   38958   38967   38976   38985       1
   38955   38943   38952   38958       1   38955   38943   38952   38964       1
   38952   38958   38967   38979       1   38949   38958   38952   38964       1
   38949   38958   38967   38979       1   38949   38961   38970   38982       1
   38946   38928   38940   38949       1   38940   38925   38943   38955       1
   38940   38949   38961   38973       1   38931   38907   38928   38940       1
   38931   38907   38928   38946       1   38925   38904   38919   38937       1
   38925   38940   38928   38946       1   38925   38943   38952   38964       1
   38922   38901   38919   38937       1   38916   38898   38910   38934       1
   38913   38892   38910   38934       1   38904   38889   38907   38931       1
   38904   38919   38901   38922       1   38904   38925   38943   38955       1
   38901   38886   38898   38916       1   38898   38886   38901   38922       1
   38898   38910   38892   38913       1   38895   38883   38892   38910       1
   38895   38883   38892   38913       1   38892   38910   38898   38916       1
   38889   38880   38883   38895       1   38889   38904   38919   38937       1
   38889   38907   38928   38946       1   38886   38880   38883   38895       1
   38886   38898   38910   38934       1   38886   38901   38919   38937       1
   38883   38892   38910   38934       1   38880   38883   38892   38913       1
   38880   38886   38898   38916       1   38880   38886   38901   38922       1
   38880   38889   38907   38931       1   39090   39078   39084   39093       1
   39087   39075   39084   39093       1   39081   39069   39078   39084       1
   39081   39069   39078   39090       1   39078   39084   39075   39087       1
   39075   39084   39078   39090       1   39072   39060   39066   39075       1
   39069   39078   39084   39093       1   39066   39057   39069   39081       1
   39066   39075   39084   39093       1   39063   39051   39060   39066       1
   39063   39051   39060   39072       1   39060   39066   39075   39087       1
   39057   39066   39060   39072       1   39057   39066   39075   39087       1
   39057   39069   39078   39090       1   39054   39036   39048   39057       1
   39048   39033   39051   39063       1   39048   39057   39069   39081       1
   39039   39015   39036   39048       1   39039   39015   39036   39054       1
   39033   39012   39027   39045       1   39033   39048   39036   39054       1
   39033   39051   39060   39072       1   39030   39009   39027   39045       1
   39024   39006   39018   39042       1   39021   39000   39018   39042       1
   39012   38997   39015   39039       1   39012   39027   39009   39030       1
   39012   39033   39051   39063       1   39009   38994   39006   39024       1
   39006   38994   39009   39030       1   39006   39018   39000   39021       1
   39003   38991   39000   39018       1   39003   38991   39000   39021       1
   39000   39018   39006   39024       1   38997   38988   38991   39003       1
   38997   39012   39027   39045       1   38997   39015   39036   39054       1
   38994   38988   38991   39003       1   38994   39006   39018   39042       1
   38994   39009   39027   39045       1   38991   39000   39018   39042       1
   38988   38991   39000   39021       1   38988   38994   39006   39024       1
   38988   38994   39009   39030       1   38988   38997   39015   39039       1
   39198   39186   39192   39201       1   39195   39183   39192   39201       1
   39189   39177   39186   39192       1   39189   39177   39186   39198       1
   39186   39192   39183   39195       1   39183   39192   39186   39198       1
   39180   39168   39174   39183       1   39177   39186   39192   39201       1
   39174   39165   39177   39189       1   39174   39183   39192   39201       1
   39171   39159   39168   39174       1   39171   39159   39168   39180       1
   39168   39174   39183   39195       1   39165   39174   39168   39180       1
   39165   39174   39183   39195       1   39165   39177   39186   39198       1
   39162   39144   39156   39165       1   39156   39141   39159   39171       1
   39156   39165   39177   39189       1   39147   39123   39144   39156       1
   39147   39123   39144   39162       1   39141   39120   39135   39153       1
   39141   39156   39144   39162       1   39141   39159   39168   39180       1
   39138   39117   39135   39153       1   39132   39114   39126   39150       1
   39129   39108   39126   39150       1   39120   39105   39123   39147       1
   39120   39135   39117   39138       1   39120   39141   39159   39171       1
   39117   39102   39114   39132       1   39114   39102   39117   39138       1
   39114   39126   39108   39129       1   39111   39099   39108   39126       1
   39111   39099   39108   39129       1   39108   39126   39114   39132       1
   39105   39096   39099   39111       1   39105   39120   39135   39153       1
   39105   39123   39144   39162       1   39102   39096   39099   39111       1
   39102   39114   39126   39150       1   39102   39117   39135   39153       1
   39099   39108   39126   39150       1   39096   39099   39108   39129       1
   39096   39102   39114   39132       1   39096   39102   39117   39138       1
   39096   39105   39123   39147       1   39306   39294   39300   39309       1
   39303   39291   39300   39309       1   39297   39285   39294   39300       1
   39297   39285   39294   39306       1   39294   39300   39291   39303       1
   39291   39300   39294   39306       1   39288   39276   39282   39291       1
   39285   39294   39300   39309       1   39282   39273   39285   39297       1
   39282   39291   39300   39309       1   39279   39267   39276   39282       1
   39279   39267   39276   39288       1   39276   39282   39291   39303       1
   39273   39282   39276   39288       1   39273   39282   39291   39303       1
   39273   39285   39294   39306       1   39270   39252   39264   39273       1
   39264   39249   39267   39279       1   39264   39273   39285   39297       1
   39255   39231   39252   39264       1   39255   39231   39252   39270       1
   39249   39228   39243   39261       1   39249   39264   39252   39270       1
   39249   39267   39276   39288       1   39246   39225   39243   39261       1
   39240   39222   39234   39258       1   39237   39216   39234   39258       1
   39228   39213   39231   39255       1   39228   39243   39225   39246       1
   39228   39249   39267   39279       1   39225   39210   39222   39240       1
   39222   39210   39225   39246       1   39222   39234   39216   39237       1
   39219   39207   39216   39234       1   39219   39207   39216   39237       1
   39216   39234   39222   39240       1   39213   39204   39207   39219       1
   39213   39228   39243   39261       1   39213   39231   39252   39270       1
   39210   39204   39207   39219       1   39210   39222   39234   39258       1
   39210   39225   39243   39261       1   39207   39216   39234   39258       1
   39204   39207   39216   39237       1   39204   39210   39222   39240       1
   39204   39210   39225   39246       1   39204   39213   39231   39255       1
   39414   39402   39408   39417       1   39411   39399   39408   39417       1
   39405   39393   39402   39408       1   39405   39393   39402   39414       1
   39402   39408   39399   39411       1   39399   39408   39402   39414       1
   39396   39384   39390   39399       1   39393   39402   39408   39417       1
   39390   39381   39393   39405       1   39390   39399   39408   39417       1
   39387   39375   39384   39390       1   39387   39375   39384   39396       1
   39384   39390   39399   39411       1   39381   39390   39384   39396       1
   39381   39390   39399   39411       1   39381   39393   39402   39414       1
   39378   39360   39372   39381       1   39372   39357   39375   39387       1
   39372   39381   39393   39405       1   39363   39339   39360   39372       1
   39363   39339   39360   39378       1   39357   39336   39351   39369       1
   39357   39372   39360   39378       1   39357   39375   39384   39396       1
   39354   39333   39351   39369       1   39348   39330   39342   39366       1
   39345   39324   39342   39366       1   39336   39321   39339   39363       1
   39336   39351   39333   39354       1   39336   39357   39375   39387       1
   39333   39318   39330   39348       1   39330   39318   39333   39354       1
   39330   39342   39324   39345       1   39327   39315   39324   39342       1
   39327   39315   39324   39345       1   39324   39342   39330   39348       1
   39321   39312   39315   39327       1   39321   39336   39351   39369       1
   39321   39339   39360   39378       1   39318   39312   39315   39327       1
   39318   39330   39342   39366       1   39318   39333   39351   39369       1
   39315   39324   39342   39366       1   39312   39315   39324   39345       1
   39312   39318   39330   39348       1   39312   39318   39333   39354       1
   39312   39321   39339   39363       1   39522   39510   39516   39525       1
   39519   39507   39516   39525       1   39513   39501   39510   39516       1
   39513   39501   39510   39522       1   39510   39516   39507   39519       1
   39507   39516   39510   39522       1   39504   39492   39498   39507       1
   39501   39510   39516   39525       1   39498   39489   39501   39513       1
   39498   39507   39516   39525       1   39495   39483   39492   39498       1
   39495   39483   39492   39504       1   39492   39498   39507   39519       1
   39489   39498   39492   39504       1   39489   39498   39507   39519       1
   39489   39501   39510   39522       1   39486   39468   39480   39489       1
   39480   39465   39483   39495       1   39480   39489   39501   39513       1
   39471   39447   39468   39480       1   39471   39447   39468   39486       1
   39465   39444   39459   39477       1   39465   39480   39468   39486       1
   39465   39483   39492   39504       1   39462   39441   39459   39477       1
   39456   39438   39450   39474       1   39453   39432   39450   39474       1
   39444   39429   39447   39471       1   39444   39459   39441   39462       1
   39444   39465   39483   39495       1   39441   39426   39438   39456       1
   39438   39426   39441   39462       1   39438   39450   39432   39453       1
   39435   39423   39432   39450       1   39435   39423   39432   39453       1
   39432   39450   39438   39456       1   39429   39420   39423   39435       1
   39429   39444   39459   39477       1   39429   39447   39468   39486       1
   39426   39420   39423   39435       1   39426   39438   39450   39474       1
   39426   39441   39459   39477       1   39423   39432   39450   39474       1
   39420   39423   39432   39453       1   39420   39426   39438   39456       1
   39420   39426   39441   39462       1   39420   39429   39447   39471       1
   39630   39618   39624   39633       1   39627   39615   39624   39633       1
   39621   39609   39618   39624       1   39621   39609   39618   39630       1
   39618   39624   39615   39627       1   39615   39624   39618   39630       1
   39612   39600   39606   39615       1   39609   39618   39624   39633       1
   39606   39597   39609   39621       1   39606   39615   39624   39633       1
   39603   39591   39600   39606       1   39603   39591   39600   39612       1
   39600   39606   39615   39627       1   39597   39606   39600   39612       1
   39597   39606   39615   39627       1   39597   39609   39618   39630       1
   39594   39576   39588   39597       1   39588   39573   39591   39603       1
   39588   39597   39609   39621       1   39579   39555   39576   39588       1
   39579   39555   39576   39594       1   39573   39552   39567   39585       1
   39573   39588   39576   39594       1   39573   39591   39600   39612       1
   39570   39549   39567   39585       1   39564   39546   39558   39582       1
   39561   39540   39558   39582       1   39552   39537   39555   39579       1
   39552   39567   39549   39570       1   39552   39573   39591   39603       1
   39549   39534   39546   39564       1   39546   39534   39549   39570       1
   39546   39558   39540   39561       1   39543   39531   39540   39558       1
   39543   39531   39540   39561       1   39540   39558   39546   39564       1
   39537   39528   39531   39543       1   39537   39552   39567   39585       1
   39537   39555   39576   39594       1   39534   39528   39531   39543       1
   39534   39546   39558   39582       1   39534   39549   39567   39585       1
   39531   39540   39558   39582       1   39528   39531   39540   39561       1
   39528   39534   39546   39564       1   39528   39534   39549   39570       1
   39528   39537   39555   39579       1   39738   39726   39732   39741       1
   39735   39723   39732   39741       1   39729   39717   39726   39732       1
   39729   39717   39726   39738       1   39726   39732   39723   39735       1
   39723   39732   39726   39738       1   39720   39708   39714   39723       1
   39717   39726   39732   39741       1   39714   39705   39717   39729       1
   39714   39723   39732   39741       1   39711   39699   39708   39714       1
   39711   39699   39708   39720       1   39708   39714   39723   39735       1
   39705   39714   39708   39720       1   39705   39714   39723   39735       1
   39705   39717   39726   39738       1   39702   39684   39696   39705       1
   39696   39681   39699   39711       1   39696   39705   39717   39729       1
   39687   39663   39684   39696       1   39687   39663   39684   39702       1
   39681   39660   39675   39693       1   39681   39696   39684   39702       1
   39681   39699   39708   39720       1   39678   39657   39675   39693       1
   39672   39654   39666   39690       1   39669   39648   39666   39690       1
   39660   39645   39663   39687       1   39660   39675   39657   39678       1
   39660   39681   39699   39711       1   39657   39642   39654   39672       1
   39654   39642   39657   39678       1   39654   39666   39648   39669       1
   39651   39639   39648   39666       1   39651   39639   39648   39669       1
   39648   39666   39654   39672       1   39645   39636   39639   39651       1
   39645   39660   39675   39693       1   39645   39663   39684   39702       1
   39642   39636   39639   39651       1   39642   39654   39666   39690       1
   39642   39657   39675   39693       1   39639   39648   39666   39690       1
   39636   39639   39648   39669       1   39636   39642   39654   39672       1
   39636   39642   39657   39678       1   39636   39645   39663   39687       1
   39846   39834   39840   39849       1   39843   39831   39840   39849       1
   39837   39825   39834   39840       1   39837   39825   39834   39846       1
   39834   39840   39831   39843       1   39831   39840   39834   39846       1
   39828   39816   39822   39831       1   39825   39834   39840   39849       1
   39822   39813   39825   39837       1   39822   39831   39840   39849       1
   39819   39807   39816   39822       1   39819   39807   39816   39828       1
   39816   39822   39831   39843       1   39813   39822   39816   39828       1
   39813   39822   39831   39843       1   39813   39825   39834   39846       1
   39810   39792   39804   39813       1   39804   39789   39807   39819       1
   39804   39813   39825   39837       1   39795   39771   39792   39804       1
   39795   39771   39792   39810       1   39789   39768   39783   39801       1
   39789   39804   39792   39810       1   39789   39807   39816   39828       1
   39786   39765   39783   39801       1   39780   39762   39774   39798       1
   39777   39756   39774   39798       1   39768   39753   39771   39795       1
   39768   39783   39765   39786       1   39768   39789   39807   39819       1
   39765   39750   39762   39780       1   39762   39750   39765   39786       1
   39762   39774   39756   39777       1   39759   39747   39756   39774       1
   39759   39747   39756   39777       1   39756   39774   39762   39780       1
   39753   39744   39747   39759       1   39753   39768   39783   39801       1
   39753   39771   39792   39810       1   39750   39744   39747   39759       1
   39750   39762   39774   39798       1   39750   39765   39783   39801       1
   39747   39756   39774   39798       1   39744   39747   39756   39777       1
   39744   39750   39762   39780       1   39744   39750   39765   39786       1
   39744   39753   39771   39795       1   39954   39942   39948   39957       1
   39951   39939   39948   39957       1   39945   39933   39942   39948       1
   39945   39933   39942   39954       1   39942   39948   39939   39951       1
   39939   39948   39942   39954       1   39936   39924   39930   39939       1
   39933   39942   39948   39957       1   39930   39921   39933   39945       1
   39930   39939   39948   39957       1   39927   39915   39924   39930       1
   39927   39915   39924   39936       1   39924   39930   39939   39951       1
   39921   39930   39924   39936       1   39921   39930   39939   39951       1
   39921   39933   39942   39954       1   39918   39900   39912   39921       1
   39912   39897   39915   39927       1   39912   39921   39933   39945       1
   39903   39879   39900   39912       1   39903   39879   39900   39918       1
   39897   39876   39891   39909       1   39897   39912   39900   39918       1
   39897   39915   39924   39936       1   39894   39873   39891   39909       1
   39888   39870   39882   39906       1   39885   39864   39882   39906       1
   39876   39861   39879   39903       1   39876   39891   39873   39894       1
   39876   39897   39915   39927       1   39873   39858   39870   39888       1
   39870   39858   39873   39894       1   39870   39882   39864   39885       1
   39867   39855   39864   39882       1   39867   39855   39864   39885       1
   39864   39882   39870   39888       1   39861   39852   39855   39867       1
   39861   39876   39891   39909       1   39861   39879   39900   39918       1
   39858   39852   39855   39867       1   39858   39870   39882   39906       1
   39858   39873   39891   39909       1   39855   39864   39882   39906       1
   39852   39855   39864   39885       1   39852   39858   39870   39888       1
   39852   39858   39873   39894       1   39852   39861   39879   39903       1
   40062   40050   40056   40065       1   40059   40047   40056   40065       1
   40053   40041   40050   40056       1   40053   40041   40050   40062       1
   40050   40056   40047   40059       1   40047   40056   40050   40062       1
   40044   40032   40038   40047       1   40041   40050   40056   40065       1
   40038   40029   40041   40053       1   40038   40047   40056   40065       1
   40035   40023   40032   40038       1   40035   40023   40032   40044       1
   40032   40038   40047   40059       1   40029   40038   40032   40044       1
   40029   40038   40047   40059       1   40029   40041   40050   40062       1
   40026   40008   40020   40029       1   40020   40005   40023   40035       1
   40020   40029   40041   40053       1   40011   39987   40008   40020       1
   40011   39987   40008   40026       1   40005   39984   39999   40017       1
   40005   40020   40008   40026       1   40005   40023   40032   40044       1
   40002   39981   39999   40017       1   39996   39978   39990   40014       1
   39993   39972   39990   40014       1   39984   39969   39987   40011       1
   39984   39999   39981   40002       1   39984   40005   40023   40035       1
   39981   39966   39978   39996       1   39978   39966   39981   40002       1
   39978   39990   39972   39993       1   39975   39963   39972   39990       1
   39975   39963   39972   39993       1   39972   39990   39978   39996       1
   39969   39960   39963   39975       1   39969   39984   39999   40017       1
   39969   39987   40008   40026       1   39966   39960   39963   39975       1
   39966   39978   39990   40014       1   39966   39981   39999   40017       1
   39963   39972   39990   40014       1   39960   39963   39972   39993       1
   39960   39966   39978   39996       1   39960   39966   39981   40002       1
   39960   39969   39987   40011       1   40170   40158   40164   40173       1
   40167   40155   40164   40173       1   40161   40149   40158   40164       1
   40161   40149   40158   40170       1   40158   40164   40155   40167       1
   40155   40164   40158   40170       1   40152   40140   40146   40155       1
   40149   40158   40164   40173       1   40146   40137   40149   40161       1
   40146   40155   40164   40173       1   40143   40131   40140   40146       1
   40143   40131   40140   40152       1   40140   40146   40155   40167       1
   40137   40146   40140   40152       1   40137   40146   40155   40167       1
   40137   40149   40158   40170       1   40134   40116   40128   40137       1
   40128   40113   40131   40143       1   40128   40137   40149   40161       1
   40119   40095   40116   40128       1   40119   40095   40116   40134       1
   40113   40092   40107   40125       1   40113   40128   40116   40134       1
   40113   40131   40140   40152       1   40110   40089   40107   40125       1
   40104   40086   40098   40122       1   40101   40080   40098   40122       1
   40092   40077   40095   40119       1   40092   40107   40089   40110       1
   40092   40113   40131   40143       1   40089   40074   40086   40104       1
   40086   40074   40089   40110       1   40086   40098   40080   40101       1
   40083   40071   40080   40098       1   40083   40071   40080   40101       1
   40080   40098   40086   40104       1   40077   40068   40071   40083       1
   40077   40092   40107   40125       1   40077   40095   40116   40134       1
   40074   40068   40071   40083       1   40074   40086   40098   40122       1
   40074   40089   40107   40125       1   40071   40080   40098   40122       1
   40068   40071   40080   40101       1   40068   40074   40086   40104       1
   40068   40074   40089   40110       1   40068   40077   40095   40119       1
   40278   40266   40272   40281       1   40275   40263   40272   40281       1
   40269   40257   40266   40272       1   40269   40257   40266   40278       1
   40266   40272   40263   40275       1   40263   40272   40266   40278       1
   40260   40248   40254   40263       1   40257   40266   40272   40281       1
   40254   40245   40257   40269       1   40254   40263   40272   40281       1
   40251   40239   40248   40254       1   40251   40239   40248   40260       1
   40248   40254   40263   40275       1   40245   40254   40248   40260       1
   40245   40254   40263   40275       1   40245   40257   40266   40278       1
   40242   40224   40236   40245       1   40236   40221   40239   40251       1
   40236   40245   40257   40269       1   40227   40203   40224   40236       1
   40227   40203   40224   40242       1   40221   40200   40215   40233       1
   40221   40236   40224   40242       1   40221   40239   40248   40260       1
   40218   40197   40215   40233       1   40212   40194   40206   40230       1
   40209   40188   40206   40230       1   40200   40185   40203   40227       1
   40200   40215   40197   40218       1   40200   40221   40239   40251       1
   40197   40182   40194   40212       1   40194   40182   40197   40218       1
   40194   40206   40188   40209       1   40191   40179   40188   40206       1
   40191   40179   40188   40209       1   40188   40206   40194   40212       1
   40185   40176   40179   40191       1   40185   40200   40215   40233       1
   40185   40203   40224   40242       1   40182   40176   40179   40191       1
   40182   40194   40206   40230       1   40182   40197   40215   40233       1
   40179   40188   40206   40230       1   40176   40179   40188   40209       1
   40176   40182   40194   40212       1   40176   40182   40197   40218       1
   40176   40185   40203   40227       1   40386   40374   40380   40389       1
   40383   40371   40380   40389       1   40377   40365   40374   40380       1
   40377   40365   40374   40386       1   40374   40380   40371   40383       1
   40371   40380   40374   40386       1   40368   40356   40362   40371       1
   40365   40374   40380   40389       1   40362   40353   40365   40377       1
   40362   40371   40380   40389       1   40359   40347   40356   40362       1
   40359   40347   40356   40368       1   40356   40362   40371   40383       1
   40353   40362   40356   40368       1   40353   40362   40371   40383       1
   40353   40365   40374   40386       1   40350   40332   40344   40353       1
   40344   40329   40347   40359       1   40344   40353   40365   40377       1
   40335   40311   40332   40344       1   40335   40311   40332   40350       1
   40329   40308   40323   40341       1   40329   40344   40332   40350       1
   40329   40347   40356   40368       1   40326   40305   40323   40341       1
   40320   40302   40314   40338       1   40317   40296   40314   40338       1
   40308   40293   40311   40335       1   40308   40323   40305   40326       1
   40308   40329   40347   40359       1   40305   40290   40302   40320       1
   40302   40290   40305   40326       1   40302   40314   40296   40317       1
   40299   40287   40296   40314       1   40299   40287   40296   40317       1
   40296   40314   40302   40320       1   40293   40284   40287   40299       1
   40293   40308   40323   40341       1   40293   40311   40332   40350       1
   40290   40284   40287   40299       1   40290   40302   40314   40338       1
   40290   40305   40323   40341       1   40287   40296   40314   40338       1
   40284   40287   40296   40317       1   40284   40290   40302   40320       1
   40284   40290   40305   40326       1   40284   40293   40311   40335       1
   40494   40482   40488   40497       1   40491   40479   40488   40497       1
   40485   40473   40482   40488       1   40485   40473   40482   40494       1
   40482   40488   40479   40491       1   40479   40488   40482   40494       1
   40476   40464   40470   40479       1   40473   40482   40488   40497       1
   40470   40461   40473   40485       1   40470   40479   40488   40497       1
   40467   40455   40464   40470       1   40467   40455   40464   40476       1
   40464   40470   40479   40491       1   40461   40470   40464   40476       1
   40461   40470   40479   40491       1   40461   40473   40482   40494       1
   40458   40440   40452   40461       1   40452   40437   40455   40467       1
   40452   40461   40473   40485       1   40443   40419   40440   40452       1
   40443   40419   40440   40458       1   40437   40416   40431   40449       1
   40437   40452   40440   40458       1   40437   40455   40464   40476       1
   40434   40413   40431   40449       1   40428   40410   40422   40446       1
   40425   40404   40422   40446       1   40416   40401   40419   40443       1
   40416   40431   40413   40434       1   40416   40437   40455   40467       1
   40413   40398   40410   40428       1   40410   40398   40413   40434       1
   40410   40422   40404   40425       1   40407   40395   40404   40422       1
   40407   40395   40404   40425       1   40404   40422   40410   40428       1
   40401   40392   40395   40407       1   40401   40416   40431   40449       1
   40401   40419   40440   40458       1   40398   40392   40395   40407       1
   40398   40410   40422   40446       1   40398   40413   40431   40449       1
   40395   40404   40422   40446       1   40392   40395   40404   40425       1
   40392   40398   40410   40428       1   40392   40398   40413   40434       1
   40392   40401   40419   40443       1   40602   40590   40596   40605       1
   40599   40587   40596   40605       1   40593   40581   40590   40596       1
   40593   40581   40590   40602       1   40590   40596   40587   40599       1
   40587   40596   40590   40602       1   40584   40572   40578   40587       1
   40581   40590   40596   40605       1   40578   40569   40581   40593       1
   40578   40587   40596   40605       1   40575   40563   40572   40578       1
   40575   40563   40572   40584       1   40572   40578   40587   40599       1
   40569   40578   40572   40584       1   40569   40578   40587   40599       1
   40569   40581   40590   40602       1   40566   40548   40560   40569       1
   40560   40545   40563   40575       1   40560   40569   40581   40593       1
   40551   40527   40548   40560       1   40551   40527   40548   40566       1
   40545   40524   40539   40557       1   40545   40560   40548   40566       1
   40545   40563   40572   40584       1   40542   40521   40539   40557       1
   40536   40518   40530   40554       1   40533   40512   40530   40554       1
   40524   40509   40527   40551       1   40524   40539   40521   40542       1
   40524   40545   40563   40575       1   40521   40506   40518   40536       1
   40518   40506   40521   40542       1   40518   40530   40512   40533       1
   40515   40503   40512   40530       1   40515   40503   40512   40533       1
   40512   40530   40518   40536       1   40509   40500   40503   40515       1
   40509   40524   40539   40557       1   40509   40527   40548   40566       1
   40506   40500   40503   40515       1   40506   40518   40530   40554       1
   40506   40521   40539   40557       1   40503   40512   40530   40554       1
   40500   40503   40512   40533       1   40500   40506   40518   40536       1
   40500   40506   40521   40542       1   40500   40509   40527   40551       1
   40710   40698   40704   40713       1   40707   40695   40704   40713       1
   40701   40689   40698   40704       1   40701   40689   40698   40710       1
   40698   40704   40695   40707       1   40695   40704   40698   40710       1
   40692   40680   40686   40695       1   40689   40698   40704   40713       1
   40686   40677   40689   40701       1   40686   40695   40704   40713       1
   40683   40671   40680   40686       1   40683   40671   40680   40692       1
   40680   40686   40695   40707       1   40677   40686   40680   40692       1
   40677   40686   40695   40707       1   40677   40689   40698   40710       1
   40674   40656   40668   40677       1   40668   40653   40671   40683       1
   40668   40677   40689   40701       1   40659   40635   40656   40668       1
   40659   40635   40656   40674       1   40653   40632   40647   40665       1
   40653   40668   40656   40674       1   40653   40671   40680   40692       1
   40650   40629   40647   40665       1   40644   40626   40638   40662       1
   40641   40620   40638   40662       1   40632   40617   40635   40659       1
   40632   40647   40629   40650       1   40632   40653   40671   40683       1
   40629   40614   40626   40644       1   40626   40614   40629   40650       1
   40626   40638   40620   40641       1   40623   40611   40620   40638       1
   40623   40611   40620   40641       1   40620   40638   40626   40644       1
   40617   40608   40611   40623       1   40617   40632   40647   40665       1
   40617   40635   40656   40674       1   40614   40608   40611   40623       1
   40614   40626   40638   40662       1   40614   40629   40647   40665       1
   40611   40620   40638   40662       1   40608   40611   40620   40641       1
   40608   40614   40626   40644       1   40608   40614   40629   40650       1
   40608   40617   40635   40659       1   40818   40806   40812   40821       1
   40815   40803   40812   40821       1   40809   40797   40806   40812       1
   40809   40797   40806   40818       1   40806   40812   40803   40815       1
   40803   40812   40806   40818       1   40800   40788   40794   40803       1
   40797   40806   40812   40821       1   40794   40785   40797   40809       1
   40794   40803   40812   40821       1   40791   40779   40788   40794       1
   40791   40779   40788   40800       1   40788   40794   40803   40815       1
   40785   40794   40788   40800       1   40785   40794   40803   40815       1
   40785   40797   40806   40818       1   40782   40764   40776   40785       1
   40776   40761   40779   40791       1   40776   40785   40797   40809       1
   40767   40743   40764   40776       1   40767   40743   40764   40782       1
   40761   40740   40755   40773       1   40761   40776   40764   40782       1
   40761   40779   40788   40800       1   40758   40737   40755   40773       1
   40752   40734   40746   40770       1   40749   40728   40746   40770       1
   40740   40725   40743   40767       1   40740   40755   40737   40758       1
   40740   40761   40779   40791       1   40737   40722   40734   40752       1
   40734   40722   40737   40758       1   40734   40746   40728   40749       1
   40731   40719   40728   40746       1   40731   40719   40728   40749       1
   40728   40746   40734   40752       1   40725   40716   40719   40731       1
   40725   40740   40755   40773       1   40725   40743   40764   40782       1
   40722   40716   40719   40731       1   40722   40734   40746   40770       1
   40722   40737   40755   40773       1   40719   40728   40746   40770       1
   40716   40719   40728   40749       1   40716   40722   40734   40752       1
   40716   40722   40737   40758       1   40716   40725   40743   40767       1
   40926   40914   40920   40929       1   40923   40911   40920   40929       1
   40917   40905   40914   40920       1   40917   40905   40914   40926       1
   40914   40920   40911   40923       1   40911   40920   40914   40926       1
   40908   40896   40902   40911       1   40905   40914   40920   40929       1
   40902   40893   40905   40917       1   40902   40911   40920   40929       1
   40899   40887   40896   40902       1   40899   40887   40896   40908       1
   40896   40902   40911   40923       1   40893   40902   40896   40908       1
   40893   40902   40911   40923       1   40893   40905   40914   40926       1
   40890   40872   40884   40893       1   40884   40869   40887   40899       1
   40884   40893   40905   40917       1   40875   40851   40872   40884       1
   40875   40851   40872   40890       1   40869   40848   40863   40881       1
   40869   40884   40872   40890       1   40869   40887   40896   40908       1
   40866   40845   40863   40881       1   40860   40842   40854   40878       1
   40857   40836   40854   40878       1   40848   40833   40851   40875       1
   40848   40863   40845   40866       1   40848   40869   40887   40899       1
   40845   40830   40842   40860       1   40842   40830   40845   40866       1
   40842   40854   40836   40857       1   40839   40827   40836   40854       1
   40839   40827   40836   40857       1   40836   40854   40842   40860       1
   40833   40824   40827   40839       1   40833   40848   40863   40881       1
   40833   40851   40872   40890       1   40830   40824   40827   40839       1
   40830   40842   40854   40878       1   40830   40845   40863   40881       1
   40827   40836   40854   40878       1   40824   40827   40836   40857       1
   40824   40830   40842   40860       1   40824   40830   40845   40866       1
   40824   40833   40851   40875       1   41034   41022   41028   41037       1
   41031   41019   41028   41037       1   41025   41013   41022   41028       1
   41025   41013   41022   41034       1   41022   41028   41019   41031       1
   41019   41028   41022   41034       1   41016   41004   41010   41019       1
   41013   41022   41028   41037       1   41010   41001   41013   41025       1
   41010   41019   41028   41037       1   41007   40995   41004   41010       1
   41007   40995   41004   41016       1   41004   41010   41019   41031       1
   41001   41010   41004   41016       1   41001   41010   41019   41031       1
   41001   41013   41022   41034       1   40998   40980   40992   41001       1
   40992   40977   40995   41007       1   40992   41001   41013   41025       1
   40983   40959   40980   40992       1   40983   40959   40980   40998       1
   40977   40956   40971   40989       1   40977   40992   40980   40998       1
   40977   40995   41004   41016       1   40974   40953   40971   40989       1
   40968   40950   40962   40986       1   40965   40944   40962   40986       1
   40956   40941   40959   40983       1   40956   40971   40953   40974       1
   40956   40977   40995   41007       1   40953   40938   40950   40968       1
   40950   40938   40953   40974       1   40950   40962   40944   40965       1
   40947   40935   40944   40962       1   40947   40935   40944   40965       1
   40944   40962   40950   40968       1   40941   40932   40935   40947       1
   40941   40956   40971   40989       1   40941   40959   40980   40998       1
   40938   40932   40935   40947       1   40938   40950   40962   40986       1
   40938   40953   40971   40989       1   40935   40944   40962   40986       1
   40932   40935   40944   40965       1   40932   40938   40950   40968       1
   40932   40938   40953   40974       1   40932   40941   40959   40983       1
   41142   41130   41136   41145       1   41139   41127   41136   41145       1
   41133   41121   41130   41136       1   41133   41121   41130   41142       1
   41130   41136   41127   41139       1   41127   41136   41130   41142       1
   41124   41112   41118   41127       1   41121   41130   41136   41145       1
   41118   41109   41121   41133       1   41118   41127   41136   41145       1
   41115   41103   41112   41118       1   41115   41103   41112   41124       1
   41112   41118   41127   41139       1   41109   41118   41112   41124       1
   41109   41118   41127   41139       1   41109   41121   41130   41142       1
   41106   41088   41100   41109       1   41100   41085   41103   41115       1
   41100   41109   41121   41133       1   41091   41067   41088   41100       1
   41091   41067   41088   41106       1   41085   41064   41079   41097       1
   41085   41100   41088   41106       1   41085   41103   41112   41124       1
   41082   41061   41079   41097       1   41076   41058   41070   41094       1
   41073   41052   41070   41094       1   41064   41049   41067   41091       1
   41064   41079   41061   41082       1   41064   41085   41103   41115       1
   41061   41046   41058   41076       1   41058   41046   41061   41082       1
   41058   41070   41052   41073       1   41055   41043   41052   41070       1
   41055   41043   41052   41073       1   41052   41070   41058   41076       1
   41049   41040   41043   41055       1   41049   41064   41079   41097       1
   41049   41067   41088   41106       1   41046   41040   41043   41055       1
   41046   41058   41070   41094       1   41046   41061   41079   41097       1
   41043   41052   41070   41094       1   41040   41043   41052   41073       1
   41040   41046   41058   41076       1   41040   41046   41061   41082       1
   41040   41049   41067   41091       1   41250   41238   41244   41253       1
   41247   41235   41244   41253       1   41241   41229   41238   41244       1
   41241   41229   41238   41250       1   41238   41244   41235   41247       1
   41235   41244   41238   41250       1   41232   41220   41226   41235       1
   41229   41238   41244   41253       1   41226   41217   41229   41241       1
   41226   41235   41244   41253       1   41223   41211   41220   41226       1
   41223   41211   41220   41232       1   41220   41226   41235   41247       1
   41217   41226   41220   41232       1   41217   41226   41235   41247       1
   41217   41229   41238   41250       1   41214   41196   41208   41217       1
   41208   41193   41211   41223       1   41208   41217   41229   41241       1
   41199   41175   41196   41208       1   41199   41175   41196   41214       1
   41193   41172   41187   41205       1   41193   41208   41196   41214       1
   41193   41211   41220   41232       1   41190   41169   41187   41205       1
   41184   41166   41178   41202       1   41181   41160   41178   41202       1
   41172   41157   41175   41199       1   41172   41187   41169   41190       1
   41172   41193   41211   41223       1   41169   41154   41166   41184       1
   41166   41154   41169   41190       1   41166   41178   41160   41181       1
   41163   41151   41160   41178       1   41163   41151   41160   41181       1
   41160   41178   41166   41184       1   41157   41148   41151   41163       1
   41157   41172   41187   41205       1   41157   41175   41196   41214       1
   41154   41148   41151   41163       1   41154   41166   41178   41202       1
   41154   41169   41187   41205       1   41151   41160   41178   41202       1
   41148   41151   41160   41181       1   41148   41154   41166   41184       1
   41148   41154   41169   41190       1   41148   41157   41175   41199       1
   41358   41346   41352   41361       1   41355   41343   41352   41361       1
   41349   41337   41346   41352       1   41349   41337   41346   41358       1
   41346   41352   41343   41355       1   41343   41352   41346   41358       1
   41340   41328   41334   41343       1   41337   41346   41352   41361       1
   41334   41325   41337   41349       1   41334   41343   41352   41361       1
   41331   41319   41328   41334       1   41331   41319   41328   41340       1
   41328   41334   41343   41355       1   41325   41334   41328   41340       1
   41325   41334   41343   41355       1   41325   41337   41346   41358       1
   41322   41304   41316   41325       1   41316   41301   41319   41331       1
   41316   41325   41337   41349       1   41307   41283   41304   41316       1
   41307   41283   41304   41322       1   41301   41280   41295   41313       1
   41301   41316   41304   41322       1   41301   41319   41328   41340       1
   41298   41277   41295   41313       1   41292   41274   41286   41310       1
   41289   41268   41286   41310       1   41280   41265   41283   41307       1
   41280   41295   41277   41298       1   41280   41301   41319   41331       1
   41277   41262   41274   41292       1   41274   41262   41277   41298       1
   41274   41286   41268   41289       1   41271   41259   41268   41286       1
   41271   41259   41268   41289       1   41268   41286   41274   41292       1
   41265   41256   41259   41271       1   41265   41280   41295   41313       1
   41265   41283   41304   41322       1   41262   41256   41259   41271       1
   41262   41274   41286   41310       1   41262   41277   41295   41313       1
   41259   41268   41286   41310       1   41256   41259   41268   41289       1
   41256   41262   41274   41292       1   41256   41262   41277   41298       1
   41256   41265   41283   41307       1   41466   41454   41460   41469       1
   41463   41451   41460   41469       1   41457   41445   41454   41460       1
   41457   41445   41454   41466       1   41454   41460   41451   41463       1
   41451   41460   41454   41466       1   41448   41436   41442   41451       1
   41445   41454   41460   41469       1   41442   41433   41445   41457       1
   41442   41451   41460   41469       1   41439   41427   41436   41442       1
   41439   41427   41436   41448       1   41436   41442   41451   41463       1
   41433   41442   41436   41448       1   41433   41442   41451   41463       1
   41433   41445   41454   41466       1   41430   41412   41424   41433       1
   41424   41409   41427   41439       1   41424   41433   41445   41457       1
   41415   41391   41412   41424       1   41415   41391   41412   41430       1
   41409   41388   41403   41421       1   41409   41424   41412   41430       1
   41409   41427   41436   41448       1   41406   41385   41403   41421       1
   41400   41382   41394   41418       1   41397   41376   41394   41418       1
   41388   41373   41391   41415       1   41388   41403   41385   41406       1
   41388   41409   41427   41439       1   41385   41370   41382   41400       1
   41382   41370   41385   41406       1   41382   41394   41376   41397       1
   41379   41367   41376   41394       1   41379   41367   41376   41397       1
   41376   41394   41382   41400       1   41373   41364   41367   41379       1
   41373   41388   41403   41421       1   41373   41391   41412   41430       1
   41370   41364   41367   41379       1   41370   41382   41394   41418       1
   41370   41385   41403   41421       1   41367   41376   41394   41418       1
   41364   41367   41376   41397       1   41364   41370   41382   41400       1
   41364   41370   41385   41406       1   41364   41373   41391   41415       1
   41574   41562   41568   41577       1   41571   41559   41568   41577       1
   41565   41553   41562   41568       1   41565   41553   41562   41574       1
   41562   41568   41559   41571       1   41559   41568   41562   41574       1
   41556   41544   41550   41559       1   41553   41562   41568   41577       1
   41550   41541   41553   41565       1   41550   41559   41568   41577       1
   41547   41535   41544   41550       1   41547   41535   41544   41556       1
   41544   41550   41559   41571       1   41541   41550   41544   41556       1
   41541   41550   41559   41571       1   41541   41553   41562   41574       1
   41538   41520   41532   41541       1   41532   41517   41535   41547       1
   41532   41541   41553   41565       1   41523   41499   41520   41532       1
   41523   41499   41520   41538       1   41517   41496   41511   41529       1
   41517   41532   41520   41538       1   41517   41535   41544   41556       1
   41514   41493   41511   41529       1   41508   41490   41502   41526       1
   41505   41484   41502   41526       1   41496   41481   41499   41523       1
   41496   41511   41493   41514       1   41496   41517   41535   41547       1
   41493   41478   41490   41508       1   41490   41478   41493   41514       1
   41490   41502   41484   41505       1   41487   41475   41484   41502       1
   41487   41475   41484   41505       1   41484   41502   41490   41508       1
   41481   41472   41475   41487       1   41481   41496   41511   41529       1
   41481   41499   41520   41538       1   41478   41472   41475   41487       1
   41478   41490   41502   41526       1   41478   41493   41511   41529       1
   41475   41484   41502   41526       1   41472   41475   41484   41505       1
   41472   41478   41490   41508       1   41472   41478   41493   41514       1
   41472   41481   41499   41523       1   41682   41670   41676   41685       1
   41679   41667   41676   41685       1   41673   41661   41670   41676       1
   41673   41661   41670   41682       1   41670   41676   41667   41679       1
   41667   41676   41670   41682       1   41664   41652   41658   41667       1
   41661   41670   41676   41685       1   41658   41649   41661   41673       1
   41658   41667   41676   41685       1   41655   41643   41652   41658       1
   41655   41643   41652   41664       1   41652   41658   41667   41679       1
   41649   41658   41652   41664       1   41649   41658   41667   41679       1
   41649   41661   41670   41682       1   41646   41628   41640   41649       1
   41640   41625   41643   41655       1   41640   41649   41661   41673       1
   41631   41607   41628   41640       1   41631   41607   41628   41646       1
   41625   41604   41619   41637       1   41625   41640   41628   41646       1
   41625   41643   41652   41664       1   41622   41601   41619   41637       1
   41616   41598   41610   41634       1   41613   41592   41610   41634       1
   41604   41589   41607   41631       1   41604   41619   41601   41622       1
   41604   41625   41643   41655       1   41601   41586   41598   41616       1
   41598   41586   41601   41622       1   41598   41610   41592   41613       1
   41595   41583   41592   41610       1   41595   41583   41592   41613       1
   41592   41610   41598   41616       1   41589   41580   41583   41595       1
   41589   41604   41619   41637       1   41589   41607   41628   41646       1
   41586   41580   41583   41595       1   41586   41598   41610   41634       1
   41586   41601   41619   41637       1   41583   41592   41610   41634       1
   41580   41583   41592   41613       1   41580   41586   41598   41616       1
   41580   41586   41601   41622       1   41580   41589   41607   41631       1
   41790   41778   41784   41793       1   41787   41775   41784   41793       1
   41781   41769   41778   41784       1   41781   41769   41778   41790       1
   41778   41784   41775   41787       1   41775   41784   41778   41790       1
   41772   41760   41766   41775       1   41769   41778   41784   41793       1
   41766   41757   41769   41781       1   41766   41775   41784   41793       1
   41763   41751   41760   41766       1   41763   41751   41760   41772       1
   41760   41766   41775   41787       1   41757   41766   41760   41772       1
   41757   41766   41775   41787       1   41757   41769   41778   41790       1
   41754   41736   41748   41757       1   41748   41733   41751   41763       1
   41748   41757   41769   41781       1   41739   41715   41736   41748       1
   41739   41715   41736   41754       1   41733   41712   41727   41745       1
   41733   41748   41736   41754       1   41733   41751   41760   41772       1
   41730   41709   41727   41745       1   41724   41706   41718   41742       1
   41721   41700   41718   41742       1   41712   41697   41715   41739       1
   41712   41727   41709   41730       1   41712   41733   41751   41763       1
   41709   41694   41706   41724       1   41706   41694   41709   41730       1
   41706   41718   41700   41721       1   41703   41691   41700   41718       1
   41703   41691   41700   41721       1   41700   41718   41706   41724       1
   41697   41688   41691   41703       1   41697   41712   41727   41745       1
   41697   41715   41736   41754       1   41694   41688   41691   41703       1
   41694   41706   41718   41742       1   41694   41709   41727   41745       1
   41691   41700   41718   41742       1   41688   41691   41700   41721       1
   41688   41694   41706   41724       1   41688   41694   41709   41730       1
   41688   41697   41715   41739       1   41898   41886   41892   41901       1
   41895   41883   41892   41901       1   41889   41877   41886   41892       1
   41889   41877   41886   41898       1   41886   41892   41883   41895       1
   41883   41892   41886   41898       1   41880   41868   41874   41883       1
   41877   41886   41892   41901       1   41874   41865   41877   41889       1
   41874   41883   41892   41901       1   41871   41859   41868   41874       1
   41871   41859   41868   41880       1   41868   41874   41883   41895       1
   41865   41874   41868   41880       1   41865   41874   41883   41895       1
   41865   41877   41886   41898       1   41862   41844   41856   41865       1
   41856   41841   41859   41871       1   41856   41865   41877   41889       1
   41847   41823   41844   41856       1   41847   41823   41844   41862       1
   41841   41820   41835   41853       1   41841   41856   41844   41862       1
   41841   41859   41868   41880       1   41838   41817   41835   41853       1
   41832   41814   41826   41850       1   41829   41808   41826   41850       1
   41820   41805   41823   41847       1   41820   41835   41817   41838       1
   41820   41841   41859   41871       1   41817   41802   41814   41832       1
   41814   41802   41817   41838       1   41814   41826   41808   41829       1
   41811   41799   41808   41826       1   41811   41799   41808   41829       1
   41808   41826   41814   41832       1   41805   41796   41799   41811       1
   41805   41820   41835   41853       1   41805   41823   41844   41862       1
   41802   41796   41799   41811       1   41802   41814   41826   41850       1
   41802   41817   41835   41853       1   41799   41808   41826   41850       1
   41796   41799   41808   41829       1   41796   41802   41814   41832       1
   41796   41802   41817   41838       1   41796   41805   41823   41847       1
   42006   41994   42000   42009       1   42003   41991   42000   42009       1
   41997   41985   41994   42000       1   41997   41985   41994   42006       1
   41994   42000   41991   42003       1   41991   42000   41994   42006       1
   41988   41976   41982   41991       1   41985   41994   42000   42009       1
   41982   41973   41985   41997       1   41982   41991   42000   42009       1
   41979   41967   41976   41982       1   41979   41967   41976   41988       1
   41976   41982   41991   42003       1   41973   41982   41976   41988       1
   41973   41982   41991   42003       1   41973   41985   41994   42006       1
   41970   41952   41964   41973       1   41964   41949   41967   41979       1
   41964   41973   41985   41997       1   41955   41931   41952   41964       1
   41955   41931   41952   41970       1   41949   41928   41943   41961       1
   41949   41964   41952   41970       1   41949   41967   41976   41988       1
   41946   41925   41943   41961       1   41940   41922   41934   41958       1
   41937   41916   41934   41958       1   41928   41913   41931   41955       1
   41928   41943   41925   41946       1   41928   41949   41967   41979       1
   41925   41910   41922   41940       1   41922   41910   41925   41946       1
   41922   41934   41916   41937       1   41919   41907   41916   41934       1
   41919   41907   41916   41937       1   41916   41934   41922   41940       1
   41913   41904   41907   41919       1   41913   41928   41943   41961       1
   41913   41931   41952   41970       1   41910   41904   41907   41919       1
   41910   41922   41934   41958       1   41910   41925   41943   41961       1
   41907   41916   41934   41958       1   41904   41907   41916   41937       1
   41904   41910   41922   41940       1   41904   41910   41925   41946       1
   41904   41913   41931   41955       1   42114   42102   42108   42117       1
   42111   42099   42108   42117       1   42105   42093   42102   42108       1
   42105   42093   42102   42114       1   42102   42108   42099   42111       1
   42099   42108   42102   42114       1   42096   42084   42090   42099       1
   42093   42102   42108   42117       1   42090   42081   42093   42105       1
   42090   42099   42108   42117       1   42087   42075   42084   42090       1
   42087   42075   42084   42096       1   42084   42090   42099   42111       1
   42081   42090   42084   42096       1   42081   42090   42099   42111       1
   42081   42093   42102   42114       1   42078   42060   42072   42081       1
   42072   42057   42075   42087       1   42072   42081   42093   42105       1
   42063   42039   42060   42072       1   42063   42039   42060   42078       1
   42057   42036   42051   42069       1   42057   42072   42060   42078       1
   42057   42075   42084   42096       1   42054   42033   42051   42069       1
   42048   42030   42042   42066       1   42045   42024   42042   42066       1
   42036   42021   42039   42063       1   42036   42051   42033   42054       1
   42036   42057   42075   42087       1   42033   42018   42030   42048       1
   42030   42018   42033   42054       1   42030   42042   42024   42045       1
   42027   42015   42024   42042       1   42027   42015   42024   42045       1
   42024   42042   42030   42048       1   42021   42012   42015   42027       1
   42021   42036   42051   42069       1   42021   42039   42060   42078       1
   42018   42012   42015   42027       1   42018   42030   42042   42066       1
   42018   42033   42051   42069       1   42015   42024   42042   42066       1
   42012   42015   42024   42045       1   42012   42018   42030   42048       1
   42012   42018   42033   42054       1   42012   42021   42039   42063       1
   42222   42210   42216   42225       1   42219   42207   42216   42225       1
   42213   42201   42210   42216       1   42213   42201   42210   42222       1
   42210   42216   42207   42219       1   42207   42216   42210   42222       1
   42204   42192   42198   42207       1   42201   42210   42216   42225       1
   42198   42189   42201   42213       1   42198   42207   42216   42225       1
   42195   42183   42192   42198       1   42195   42183   42192   42204       1
   42192   42198   42207   42219       1   42189   42198   42192   42204       1
   42189   42198   42207   42219       1   42189   42201   42210   42222       1
   42186   42168   42180   42189       1   42180   42165   42183   42195       1
   42180   42189   42201   42213       1   42171   42147   42168   42180       1
   42171   42147   42168   42186       1   42165   42144   42159   42177       1
   42165   42180   42168   42186       1   42165   42183   42192   42204       1
   42162   42141   42159   42177       1   42156   42138   42150   42174       1
   42153   42132   42150   42174       1   42144   42129   42147   42171       1
   42144   42159   42141   42162       1   42144   42165   42183   42195       1
   42141   42126   42138   42156       1   42138   42126   42141   42162       1
   42138   42150   42132   42153       1   42135   42123   42132   42150       1
   42135   42123   42132   42153       1   42132   42150   42138   42156       1
   42129   42120   42123   42135       1   42129   42144   42159   42177       1
   42129   42147   42168   42186       1   42126   42120   42123   42135       1
   42126   42138   42150   42174       1   42126   42141   42159   42177       1
   42123   42132   42150   42174       1   42120   42123   42132   42153       1
   42120   42126   42138   42156       1   42120   42126   42141   42162       1
   42120   42129   42147   42171       1   42330   42318   42324   42333       1
   42327   42315   42324   42333       1   42321   42309   42318   42324       1
   42321   42309   42318   42330       1   42318   42324   42315   42327       1
   42315   42324   42318   42330       1   42312   42300   42306   42315       1
   42309   42318   42324   42333       1   42306   42297   42309   42321       1
   42306   42315   42324   42333       1   42303   42291   42300   42306       1
   42303   42291   42300   42312       1   42300   42306   42315   42327       1
   42297   42306   42300   42312       1   42297   42306   42315   42327       1
   42297   42309   42318   42330       1   42294   42276   42288   42297       1
   42288   42273   42291   42303       1   42288   42297   42309   42321       1
   42279   42255   42276   42288       1   42279   42255   42276   42294       1
   42273   42252   42267   42285       1   42273   42288   42276   42294       1
   42273   42291   42300   42312       1   42270   42249   42267   42285       1
   42264   42246   42258   42282       1   42261   42240   42258   42282       1
   42252   42237   42255   42279       1   42252   42267   42249   42270       1
   42252   42273   42291   42303       1   42249   42234   42246   42264       1
   42246   42234   42249   42270       1   42246   42258   42240   42261       1
   42243   42231   42240   42258       1   42243   42231   42240   42261       1
   42240   42258   42246   42264       1   42237   42228   42231   42243       1
   42237   42252   42267   42285       1   42237   42255   42276   42294       1
   42234   42228   42231   42243       1   42234   42246   42258   42282       1
   42234   42249   42267   42285       1   42231   42240   42258   42282       1
   42228   42231   42240   42261       1   42228   42234   42246   42264       1
   42228   42234   42249   42270       1   42228   42237   42255   42279       1
   42438   42426   42432   42441       1   42435   42423   42432   42441       1
   42429   42417   42426   42432       1   42429   42417   42426   42438       1
   42426   42432   42423   42435       1   42423   42432   42426   42438       1
   42420   42408   42414   42423       1   42417   42426   42432   42441       1
   42414   42405   42417   42429       1   42414   42423   42432   42441       1
   42411   42399   42408   42414       1   42411   42399   42408   42420       1
   42408   42414   42423   42435       1   42405   42414   42408   42420       1
   42405   42414   42423   42435       1   42405   42417   42426   42438       1
   42402   42384   42396   42405       1   42396   42381   42399   42411       1
   42396   42405   42417   42429       1   42387   42363   42384   42396       1
   42387   42363   42384   42402       1   42381   42360   42375   42393       1
   42381   42396   42384   42402       1   42381   42399   42408   42420       1
   42378   42357   42375   42393       1   42372   42354   42366   42390       1
   42369   42348   42366   42390       1   42360   42345   42363   42387       1
   42360   42375   42357   42378       1   42360   42381   42399   42411       1
   42357   42342   42354   42372       1   42354   42342   42357   42378       1
   42354   42366   42348   42369       1   42351   42339   42348   42366       1
   42351   42339   42348   42369       1   42348   42366   42354   42372       1
   42345   42336   42339   42351       1   42345   42360   42375   42393       1
   42345   42363   42384   42402       1   42342   42336   42339   42351       1
   42342   42354   42366   42390       1   42342   42357   42375   42393       1
   42339   42348   42366   42390       1   42336   42339   42348   42369       1
   42336   42342   42354   42372       1   42336   42342   42357   42378       1
   42336   42345   42363   42387       1   42546   42534   42540   42549       1
   42543   42531   42540   42549       1   42537   42525   42534   42540       1
   42537   42525   42534   42546       1   42534   42540   42531   42543       1
   42531   42540   42534   42546       1   42528   42516   42522   42531       1
   42525   42534   42540   42549       1   42522   42513   42525   42537       1
   42522   42531   42540   42549       1   42519   42507   42516   42522       1
   42519   42507   42516   42528       1   42516   42522   42531   42543       1
   42513   42522   42516   42528       1   42513   42522   42531   42543       1
   42513   42525   42534   42546       1   42510   42492   42504   42513       1
   42504   42489   42507   42519       1   42504   42513   42525   42537       1
   42495   42471   42492   42504       1   42495   42471   42492   42510       1
   42489   42468   42483   42501       1   42489   42504   42492   42510       1
   42489   42507   42516   42528       1   42486   42465   42483   42501       1
   42480   42462   42474   42498       1   42477   42456   42474   42498       1
   42468   42453   42471   42495       1   42468   42483   42465   42486       1
   42468   42489   42507   42519       1   42465   42450   42462   42480       1
   42462   42450   42465   42486       1   42462   42474   42456   42477       1
   42459   42447   42456   42474       1   42459   42447   42456   42477       1
   42456   42474   42462   42480       1   42453   42444   42447   42459       1
   42453   42468   42483   42501       1   42453   42471   42492   42510       1
   42450   42444   42447   42459       1   42450   42462   42474   42498       1
   42450   42465   42483   42501       1   42447   42456   42474   42498       1
   42444   42447   42456   42477       1   42444   42450   42462   42480       1
   42444   42450   42465   42486       1   42444   42453   42471   42495       1
   42654   42642   42648   42657       1   42651   42639   42648   42657       1
   42645   42633   42642   42648       1   42645   42633   42642   42654       1
   42642   42648   42639   42651       1   42639   42648   42642   42654       1
   42636   42624   42630   42639       1   42633   42642   42648   42657       1
   42630   42621   42633   42645       1   42630   42639   42648   42657       1
   42627   42615   42624   42630       1   42627   42615   42624   42636       1
   42624   42630   42639   42651       1   42621   42630   42624   42636       1
   42621   42630   42639   42651       1   42621   42633   42642   42654       1
   42618   42600   42612   42621       1   42612   42597   42615   42627       1
   42612   42621   42633   42645       1   42603   42579   42600   42612       1
   42603   42579   42600   42618       1   42597   42576   42591   42609       1
   42597   42612   42600   42618       1   42597   42615   42624   42636       1
   42594   42573   42591   42609       1   42588   42570   42582   42606       1
   42585   42564   42582   42606       1   42576   42561   42579   42603       1
   42576   42591   42573   42594       1   42576   42597   42615   42627       1
   42573   42558   42570   42588       1   42570   42558   42573   42594       1
   42570   42582   42564   42585       1   42567   42555   42564   42582       1
   42567   42555   42564   42585       1   42564   42582   42570   42588       1
   42561   42552   42555   42567       1   42561   42576   42591   42609       1
   42561   42579   42600   42618       1   42558   42552   42555   42567       1
   42558   42570   42582   42606       1   42558   42573   42591   42609       1
   42555   42564   42582   42606       1   42552   42555   42564   42585       1
   42552   42558   42570   42588       1   42552   42558   42573   42594       1
   42552   42561   42579   42603       1   42762   42750   42756   42765       1
   42759   42747   42756   42765       1   42753   42741   42750   42756       1
   42753   42741   42750   42762       1   42750   42756   42747   42759       1
   42747   42756   42750   42762       1   42744   42732   42738   42747       1
   42741   42750   42756   42765       1   42738   42729   42741   42753       1
   42738   42747   42756   42765       1   42735   42723   42732   42738       1
   42735   42723   42732   42744       1   42732   42738   42747   42759       1
   42729   42738   42732   42744       1   42729   42738   42747   42759       1
   42729   42741   42750   42762       1   42726   42708   42720   42729       1
   42720   42705   42723   42735       1   42720   42729   42741   42753       1
   42711   42687   42708   42720       1   42711   42687   42708   42726       1
   42705   42684   42699   42717       1   42705   42720   42708   42726       1
   42705   42723   42732   42744       1   42702   42681   42699   42717       1
   42696   42678   42690   42714       1   42693   42672   42690   42714       1
   42684   42669   42687   42711       1   42684   42699   42681   42702       1
   42684   42705   42723   42735       1   42681   42666   42678   42696       1
   42678   42666   42681   42702       1   42678   42690   42672   42693       1
   42675   42663   42672   42690       1   42675   42663   42672   42693       1
   42672   42690   42678   42696       1   42669   42660   42663   42675       1
   42669   42684   42699   42717       1   42669   42687   42708   42726       1
   42666   42660   42663   42675       1   42666   42678   42690   42714       1
   42666   42681   42699   42717       1   42663   42672   42690   42714       1
   42660   42663   42672   42693       1   42660   42666   42678   42696       1
   42660   42666   42681   42702       1   42660   42669   42687   42711       1
   42870   42858   42864   42873       1   42867   42855   42864   42873       1
   42861   42849   42858   42864       1   42861   42849   42858   42870       1
   42858   42864   42855   42867       1   42855   42864   42858   42870       1
   42852   42840   42846   42855       1   42849   42858   42864   42873       1
   42846   42837   42849   42861       1   42846   42855   42864   42873       1
   42843   42831   42840   42846       1   42843   42831   42840   42852       1
   42840   42846   42855   42867       1   42837   42846   42840   42852       1
   42837   42846   42855   42867       1   42837   42849   42858   42870       1
   42834   42816   42828   42837       1   42828   42813   42831   42843       1
   42828   42837   42849   42861       1   42819   42795   42816   42828       1
   42819   42795   42816   42834       1   42813   42792   42807   42825       1
   42813   42828   42816   42834       1   42813   42831   42840   42852       1
   42810   42789   42807   42825       1   42804   42786   42798   42822       1
   42801   42780   42798   42822       1   42792   42777   42795   42819       1
   42792   42807   42789   42810       1   42792   42813   42831   42843       1
   42789   42774   42786   42804       1   42786   42774   42789   42810       1
   42786   42798   42780   42801       1   42783   42771   42780   42798       1
   42783   42771   42780   42801       1   42780   42798   42786   42804       1
   42777   42768   42771   42783       1   42777   42792   42807   42825       1
   42777   42795   42816   42834       1   42774   42768   42771   42783       1
   42774   42786   42798   42822       1   42774   42789   42807   42825       1
   42771   42780   42798   42822       1   42768   42771   42780   42801       1
   42768   42774   42786   42804       1   42768   42774   42789   42810       1
   42768   42777   42795   42819       1   42978   42966   42972   42981       1
   42975   42963   42972   42981       1   42969   42957   42966   42972       1
   42969   42957   42966   42978       1   42966   42972   42963   42975       1
   42963   42972   42966   42978       1   42960   42948   42954   42963       1
   42957   42966   42972   42981       1   42954   42945   42957   42969       1
   42954   42963   42972   42981       1   42951   42939   42948   42954       1
   42951   42939   42948   42960       1   42948   42954   42963   42975       1
   42945   42954   42948   42960       1   42945   42954   42963   42975       1
   42945   42957   42966   42978       1   42942   42924   42936   42945       1
   42936   42921   42939   42951       1   42936   42945   42957   42969       1
   42927   42903   42924   42936       1   42927   42903   42924   42942       1
   42921   42900   42915   42933       1   42921   42936   42924   42942       1
   42921   42939   42948   42960       1   42918   42897   42915   42933       1
   42912   42894   42906   42930       1   42909   42888   42906   42930       1
   42900   42885   42903   42927       1   42900   42915   42897   42918       1
   42900   42921   42939   42951       1   42897   42882   42894   42912       1
   42894   42882   42897   42918       1   42894   42906   42888   42909       1
   42891   42879   42888   42906       1   42891   42879   42888   42909       1
   42888   42906   42894   42912       1   42885   42876   42879   42891       1
   42885   42900   42915   42933       1   42885   42903   42924   42942       1
   42882   42876   42879   42891       1   42882   42894   42906   42930       1
   42882   42897   42915   42933       1   42879   42888   42906   42930       1
   42876   42879   42888   42909       1   42876   42882   42894   42912       1
   42876   42882   42897   42918       1   42876   42885   42903   42927       1
   43086   43074   43080   43089       1   43083   43071   43080   43089       1
   43077   43065   43074   43080       1   43077   43065   43074   43086       1
   43074   43080   43071   43083       1   43071   43080   43074   43086       1
   43068   43056   43062   43071       1   43065   43074   43080   43089       1
   43062   43053   43065   43077       1   43062   43071   43080   43089       1
   43059   43047   43056   43062       1   43059   43047   43056   43068       1
   43056   43062   43071   43083       1   43053   43062   43056   43068       1
   43053   43062   43071   43083       1   43053   43065   43074   43086       1
   43050   43032   43044   43053       1   43044   43029   43047   43059       1
   43044   43053   43065   43077       1   43035   43011   43032   43044       1
   43035   43011   43032   43050       1   43029   43008   43023   43041       1
   43029   43044   43032   43050       1   43029   43047   43056   43068       1
   43026   43005   43023   43041       1   43020   43002   43014   43038       1
   43017   42996   43014   43038       1   43008   42993   43011   43035       1
   43008   43023   43005   43026       1   43008   43029   43047   43059       1
   43005   42990   43002   43020       1   43002   42990   43005   43026       1
   43002   43014   42996   43017       1   42999   42987   42996   43014       1
   42999   42987   42996   43017       1   42996   43014   43002   43020       1
   42993   42984   42987   42999       1   42993   43008   43023   43041       1
   42993   43011   43032   43050       1   42990   42984   42987   42999       1
   42990   43002   43014   43038       1   42990   43005   43023   43041       1
   42987   42996   43014   43038       1   42984   42987   42996   43017       1
   42984   42990   43002   43020       1   42984   42990   43005   43026       1
   42984   42993   43011   43035       1   43194   43182   43188   43197       1
   43191   43179   43188   43197       1   43185   43173   43182   43188       1
   43185   43173   43182   43194       1   43182   43188   43179   43191       1
   43179   43188   43182   43194       1   43176   43164   43170   43179       1
   43173   43182   43188   43197       1   43170   43161   43173   43185       1
   43170   43179   43188   43197       1   43167   43155   43164   43170       1
   43167   43155   43164   43176       1   43164   43170   43179   43191       1
   43161   43170   43164   43176       1   43161   43170   43179   43191       1
   43161   43173   43182   43194       1   43158   43140   43152   43161       1
   43152   43137   43155   43167       1   43152   43161   43173   43185       1
   43143   43119   43140   43152       1   43143   43119   43140   43158       1
   43137   43116   43131   43149       1   43137   43152   43140   43158       1
   43137   43155   43164   43176       1   43134   43113   43131   43149       1
   43128   43110   43122   43146       1   43125   43104   43122   43146       1
   43116   43101   43119   43143       1   43116   43131   43113   43134       1
   43116   43137   43155   43167       1   43113   43098   43110   43128       1
   43110   43098   43113   43134       1   43110   43122   43104   43125       1
   43107   43095   43104   43122       1   43107   43095   43104   43125       1
   43104   43122   43110   43128       1   43101   43092   43095   43107       1
   43101   43116   43131   43149       1   43101   43119   43140   43158       1
   43098   43092   43095   43107       1   43098   43110   43122   43146       1
   43098   43113   43131   43149       1   43095   43104   43122   43146       1
   43092   43095   43104   43125       1   43092   43098   43110   43128       1
   43092   43098   43113   43134       1   43092   43101   43119   43143       1
   43302   43290   43296   43305       1   43299   43287   43296   43305       1
   43293   43281   43290   43296       1   43293   43281   43290   43302       1
   43290   43296   43287   43299       1   43287   43296   43290   43302       1
   43284   43272   43278   43287       1   43281   43290   43296   43305       1
   43278   43269   43281   43293       1   43278   43287   43296   43305       1
   43275   43263   43272   43278       1   43275   43263   43272   43284       1
   43272   43278   43287   43299       1   43269   43278   43272   43284       1
   43269   43278   43287   43299       1   43269   43281   43290   43302       1
   43266   43248   43260   43269       1   43260   43245   43263   43275       1
   43260   43269   43281   43293       1   43251   43227   43248   43260       1
   43251   43227   43248   43266       1   43245   43224   43239   43257       1
   43245   43260   43248   43266       1   43245   43263   43272   43284       1
   43242   43221   43239   43257       1   43236   43218   43230   43254       1
   43233   43212   43230   43254       1   43224   43209   43227   43251       1
   43224   43239   43221   43242       1   43224   43245   43263   43275       1
   43221   43206   43218   43236       1   43218   43206   43221   43242       1
   43218   43230   43212   43233       1   43215   43203   43212   43230       1
   43215   43203   43212   43233       1   43212   43230   43218   43236       1
   43209   43200   43203   43215       1   43209   43224   43239   43257       1
   43209   43227   43248   43266       1   43206   43200   43203   43215       1
   43206   43218   43230   43254       1   43206   43221   43239   43257       1
   43203   43212   43230   43254       1   43200   43203   43212   43233       1
   43200   43206   43218   43236       1   43200   43206   43221   43242       1
   43200   43209   43227   43251       1   43410   43398   43404   43413       1
   43407   43395   43404   43413       1   43401   43389   43398   43404       1
   43401   43389   43398   43410       1   43398   43404   43395   43407       1
   43395   43404   43398   43410       1   43392   43380   43386   43395       1
   43389   43398   43404   43413       1   43386   43377   43389   43401       1
   43386   43395   43404   43413       1   43383   43371   43380   43386       1
   43383   43371   43380   43392       1   43380   43386   43395   43407       1
   43377   43386   43380   43392       1   43377   43386   43395   43407       1
   43377   43389   43398   43410       1   43374   43356   43368   43377       1
   43368   43353   43371   43383       1   43368   43377   43389   43401       1
   43359   43335   43356   43368       1   43359   43335   43356   43374       1
   43353   43332   43347   43365       1   43353   43368   43356   43374       1
   43353   43371   43380   43392       1   43350   43329   43347   43365       1
   43344   43326   43338   43362       1   43341   43320   43338   43362       1
   43332   43317   43335   43359       1   43332   43347   43329   43350       1
   43332   43353   43371   43383       1   43329   43314   43326   43344       1
   43326   43314   43329   43350       1   43326   43338   43320   43341       1
   43323   43311   43320   43338       1   43323   43311   43320   43341       1
   43320   43338   43326   43344       1   43317   43308   43311   43323       1
   43317   43332   43347   43365       1   43317   43335   43356   43374       1
   43314   43308   43311   43323       1   43314   43326   43338   43362       1
   43314   43329   43347   43365       1   43311   43320   43338   43362       1
   43308   43311   43320   43341       1   43308   43314   43326   43344       1
   43308   43314   43329   43350       1   43308   43317   43335   43359       1
   43518   43506   43512   43521       1   43515   43503   43512   43521       1
   43509   43497   43506   43512       1   43509   43497   43506   43518       1
   43506   43512   43503   43515       1   43503   43512   43506   43518       1
   43500   43488   43494   43503       1   43497   43506   43512   43521       1
   43494   43485   43497   43509       1   43494   43503   43512   43521       1
   43491   43479   43488   43494       1   43491   43479   43488   43500       1
   43488   43494   43503   43515       1   43485   43494   43488   43500       1
   43485   43494   43503   43515       1   43485   43497   43506   43518       1
   43482   43464   43476   43485       1   43476   43461   43479   43491       1
   43476   43485   43497   43509       1   43467   43443   43464   43476       1
   43467   43443   43464   43482       1   43461   43440   43455   43473       1
   43461   43476   43464   43482       1   43461   43479   43488   43500       1
   43458   43437   43455   43473       1   43452   43434   43446   43470       1
   43449   43428   43446   43470       1   43440   43425   43443   43467       1
   43440   43455   43437   43458       1   43440   43461   43479   43491       1
   43437   43422   43434   43452       1   43434   43422   43437   43458       1
   43434   43446   43428   43449       1   43431   43419   43428   43446       1
   43431   43419   43428   43449       1   43428   43446   43434   43452       1
   43425   43416   43419   43431       1   43425   43440   43455   43473       1
   43425   43443   43464   43482       1   43422   43416   43419   43431       1
   43422   43434   43446   43470       1   43422   43437   43455   43473       1
   43419   43428   43446   43470       1   43416   43419   43428   43449       1
   43416   43422   43434   43452       1   43416   43422   43437   43458       1
   43416   43425   43443   43467       1   43626   43614   43620   43629       1
   43623   43611   43620   43629       1   43617   43605   43614   43620       1
   43617   43605   43614   43626       1   43614   43620   43611   43623       1
   43611   43620   43614   43626       1   43608   43596   43602   43611       1
   43605   43614   43620   43629       1   43602   43593   43605   43617       1
   43602   43611   43620   43629       1   43599   43587   43596   43602       1
   43599   43587   43596   43608       1   43596   43602   43611   43623       1
   43593   43602   43596   43608       1   43593   43602   43611   43623       1
   43593   43605   43614   43626       1   43590   43572   43584   43593       1
   43584   43569   43587   43599       1   43584   43593   43605   43617       1
   43575   43551   43572   43584       1   43575   43551   43572   43590       1
   43569   43548   43563   43581       1   43569   43584   43572   43590       1
   43569   43587   43596   43608       1   43566   43545   43563   43581       1
   43560   43542   43554   43578       1   43557   43536   43554   43578       1
   43548   43533   43551   43575       1   43548   43563   43545   43566       1
   43548   43569   43587   43599       1   43545   43530   43542   43560       1
   43542   43530   43545   43566       1   43542   43554   43536   43557       1
   43539   43527   43536   43554       1   43539   43527   43536   43557       1
   43536   43554   43542   43560       1   43533   43524   43527   43539       1
   43533   43548   43563   43581       1   43533   43551   43572   43590       1
   43530   43524   43527   43539       1   43530   43542   43554   43578       1
   43530   43545   43563   43581       1   43527   43536   43554   43578       1
   43524   43527   43536   43557       1   43524   43530   43542   43560       1
   43524   43530   43545   43566       1   43524   43533   43551   43575       1
   43734   43722   43728   43737       1   43731   43719   43728   43737       1
   43725   43713   43722   43728       1   43725   43713   43722   43734       1
   43722   43728   43719   43731       1   43719   43728   43722   43734       1
   43716   43704   43710   43719       1   43713   43722   43728   43737       1
   43710   43701   43713   43725       1   43710   43719   43728   43737       1
   43707   43695   43704   43710       1   43707   43695   43704   43716       1
   43704   43710   43719   43731       1   43701   43710   43704   43716       1
   43701   43710   43719   43731       1   43701   43713   43722   43734       1
   43698   43680   43692   43701       1   43692   43677   43695   43707       1
   43692   43701   43713   43725       1   43683   43659   43680   43692       1
   43683   43659   43680   43698       1   43677   43656   43671   43689       1
   43677   43692   43680   43698       1   43677   43695   43704   43716       1
   43674   43653   43671   43689       1   43668   43650   43662   43686       1
   43665   43644   43662   43686       1   43656   43641   43659   43683       1
   43656   43671   43653   43674       1   43656   43677   43695   43707       1
   43653   43638   43650   43668       1   43650   43638   43653   43674       1
   43650   43662   43644   43665       1   43647   43635   43644   43662       1
   43647   43635   43644   43665       1   43644   43662   43650   43668       1
   43641   43632   43635   43647       1   43641   43656   43671   43689       1
   43641   43659   43680   43698       1   43638   43632   43635   43647       1
   43638   43650   43662   43686       1   43638   43653   43671   43689       1
   43635   43644   43662   43686       1   43632   43635   43644   43665       1
   43632   43638   43650   43668       1   43632   43638   43653   43674       1
   43632   43641   43659   43683       1   43842   43830   43836   43845       1
   43839   43827   43836   43845       1   43833   43821   43830   43836       1
   43833   43821   43830   43842       1   43830   43836   43827   43839       1
   43827   43836   43830   43842       1   43824   43812   43818   43827       1
   43821   43830   43836   43845       1   43818   43809   43821   43833       1
   43818   43827   43836   43845       1   43815   43803   43812   43818       1
   43815   43803   43812   43824       1   43812   43818   43827   43839       1
   43809   43818   43812   43824       1   43809   43818   43827   43839       1
   43809   43821   43830   43842       1   43806   43788   43800   43809       1
   43800   43785   43803   43815       1   43800   43809   43821   43833       1
   43791   43767   43788   43800       1   43791   43767   43788   43806       1
   43785   43764   43779   43797       1   43785   43800   43788   43806       1
   43785   43803   43812   43824       1   43782   43761   43779   43797       1
   43776   43758   43770   43794       1   43773   43752   43770   43794       1
   43764   43749   43767   43791       1   43764   43779   43761   43782       1
   43764   43785   43803   43815       1   43761   43746   43758   43776       1
   43758   43746   43761   43782       1   43758   43770   43752   43773       1
   43755   43743   43752   43770       1   43755   43743   43752   43773       1
   43752   43770   43758   43776       1   43749   43740   43743   43755       1
   43749   43764   43779   43797       1   43749   43767   43788   43806       1
   43746   43740   43743   43755       1   43746   43758   43770   43794       1
   43746   43761   43779   43797       1   43743   43752   43770   43794       1
   43740   43743   43752   43773       1   43740   43746   43758   43776       1
   43740   43746   43761   43782       1   43740   43749   43767   43791       1
   43950   43938   43944   43953       1   43947   43935   43944   43953       1
   43941   43929   43938   43944       1   43941   43929   43938   43950       1
   43938   43944   43935   43947       1   43935   43944   43938   43950       1
   43932   43920   43926   43935       1   43929   43938   43944   43953       1
   43926   43917   43929   43941       1   43926   43935   43944   43953       1
   43923   43911   43920   43926       1   43923   43911   43920   43932       1
   43920   43926   43935   43947       1   43917   43926   43920   43932       1
   43917   43926   43935   43947       1   43917   43929   43938   43950       1
   43914   43896   43908   43917       1   43908   43893   43911   43923       1
   43908   43917   43929   43941       1   43899   43875   43896   43908       1
   43899   43875   43896   43914       1   43893   43872   43887   43905       1
   43893   43908   43896   43914       1   43893   43911   43920   43932       1
   43890   43869   43887   43905       1   43884   43866   43878   43902       1
   43881   43860   43878   43902       1   43872   43857   43875   43899       1
   43872   43887   43869   43890       1   43872   43893   43911   43923       1
   43869   43854   43866   43884       1   43866   43854   43869   43890       1
   43866   43878   43860   43881       1   43863   43851   43860   43878       1
   43863   43851   43860   43881       1   43860   43878   43866   43884       1
   43857   43848   43851   43863       1   43857   43872   43887   43905       1
   43857   43875   43896   43914       1   43854   43848   43851   43863       1
   43854   43866   43878   43902       1   43854   43869   43887   43905       1
   43851   43860   43878   43902       1   43848   43851   43860   43881       1
   43848   43854   43866   43884       1   43848   43854   43869   43890       1
   43848   43857   43875   43899       1   44058   44046   44052   44061       1
   44055   44043   44052   44061       1   44049   44037   44046   44052       1
   44049   44037   44046   44058       1   44046   44052   44043   44055       1
   44043   44052   44046   44058       1   44040   44028   44034   44043       1
   44037   44046   44052   44061       1   44034   44025   44037   44049       1
   44034   44043   44052   44061       1   44031   44019   44028   44034       1
   44031   44019   44028   44040       1   44028   44034   44043   44055       1
   44025   44034   44028   44040       1   44025   44034   44043   44055       1
   44025   44037   44046   44058       1   44022   44004   44016   44025       1
   44016   44001   44019   44031       1   44016   44025   44037   44049       1
   44007   43983   44004   44016       1   44007   43983   44004   44022       1
   44001   43980   43995   44013       1   44001   44016   44004   44022       1
   44001   44019   44028   44040       1   43998   43977   43995   44013       1
   43992   43974   43986   44010       1   43989   43968   43986   44010       1
   43980   43965   43983   44007       1   43980   43995   43977   43998       1
   43980   44001   44019   44031       1   43977   43962   43974   43992       1
   43974   43962   43977   43998       1   43974   43986   43968   43989       1
   43971   43959   43968   43986       1   43971   43959   43968   43989       1
   43968   43986   43974   43992       1   43965   43956   43959   43971       1
   43965   43980   43995   44013       1   43965   43983   44004   44022       1
   43962   43956   43959   43971       1   43962   43974   43986   44010       1
   43962   43977   43995   44013       1   43959   43968   43986   44010       1
   43956   43959   43968   43989       1   43956   43962   43974   43992       1
   43956   43962   43977   43998       1   43956   43965   43983   44007       1
   44166   44154   44160   44169       1   44163   44151   44160   44169       1
   44157   44145   44154   44160       1   44157   44145   44154   44166       1
   44154   44160   44151   44163       1   44151   44160   44154   44166       1
   44148   44136   44142   44151       1   44145   44154   44160   44169       1
   44142   44133   44145   44157       1   44142   44151   44160   44169       1
   44139   44127   44136   44142       1   44139   44127   44136   44148       1
   44136   44142   44151   44163       1   44133   44142   44136   44148       1
   44133   44142   44151   44163       1   44133   44145   44154   44166       1
   44130   44112   44124   44133       1   44124   44109   44127   44139       1
   44124   44133   44145   44157       1   44115   44091   44112   44124       1
   44115   44091   44112   44130       1   44109   44088   44103   44121       1
   44109   44124   44112   44130       1   44109   44127   44136   44148       1
   44106   44085   44103   44121       1   44100   44082   44094   44118       1
   44097   44076   44094   44118       1   44088   44073   44091   44115       1
   44088   44103   44085   44106       1   44088   44109   44127   44139       1
   44085   44070   44082   44100       1   44082   44070   44085   44106       1
   44082   44094   44076   44097       1   44079   44067   44076   44094       1
   44079   44067   44076   44097       1   44076   44094   44082   44100       1
   44073   44064   44067   44079       1   44073   44088   44103   44121       1
   44073   44091   44112   44130       1   44070   44064   44067   44079       1
   44070   44082   44094   44118       1   44070   44085   44103   44121       1
   44067   44076   44094   44118       1   44064   44067   44076   44097       1
   44064   44070   44082   44100       1   44064   44070   44085   44106       1
   44064   44073   44091   44115       1   44274   44262   44268   44277       1
   44271   44259   44268   44277       1   44265   44253   44262   44268       1
   44265   44253   44262   44274       1   44262   44268   44259   44271       1
   44259   44268   44262   44274       1   44256   44244   44250   44259       1
   44253   44262   44268   44277       1   44250   44241   44253   44265       1
   44250   44259   44268   44277       1   44247   44235   44244   44250       1
   44247   44235   44244   44256       1   44244   44250   44259   44271       1
   44241   44250   44244   44256       1   44241   44250   44259   44271       1
   44241   44253   44262   44274       1   44238   44220   44232   44241       1
   44232   44217   44235   44247       1   44232   44241   44253   44265       1
   44223   44199   44220   44232       1   44223   44199   44220   44238       1
   44217   44196   44211   44229       1   44217   44232   44220   44238       1
   44217   44235   44244   44256       1   44214   44193   44211   44229       1
   44208   44190   44202   44226       1   44205   44184   44202   44226       1
   44196   44181   44199   44223       1   44196   44211   44193   44214       1
   44196   44217   44235   44247       1   44193   44178   44190   44208       1
   44190   44178   44193   44214       1   44190   44202   44184   44205       1
   44187   44175   44184   44202       1   44187   44175   44184   44205       1
   44184   44202   44190   44208       1   44181   44172   44175   44187       1
   44181   44196   44211   44229       1   44181   44199   44220   44238       1
   44178   44172   44175   44187       1   44178   44190   44202   44226       1
   44178   44193   44211   44229       1   44175   44184   44202   44226       1
   44172   44175   44184   44205       1   44172   44178   44190   44208       1
   44172   44178   44193   44214       1   44172   44181   44199   44223       1
   44382   44370   44376   44385       1   44379   44367   44376   44385       1
   44373   44361   44370   44376       1   44373   44361   44370   44382       1
   44370   44376   44367   44379       1   44367   44376   44370   44382       1
   44364   44352   44358   44367       1   44361   44370   44376   44385       1
   44358   44349   44361   44373       1   44358   44367   44376   44385       1
   44355   44343   44352   44358       1   44355   44343   44352   44364       1
   44352   44358   44367   44379       1   44349   44358   44352   44364       1
   44349   44358   44367   44379       1   44349   44361   44370   44382       1
   44346   44328   44340   44349       1   44340   44325   44343   44355       1
   44340   44349   44361   44373       1   44331   44307   44328   44340       1
   44331   44307   44328   44346       1   44325   44304   44319   44337       1
   44325   44340   44328   44346       1   44325   44343   44352   44364       1
   44322   44301   44319   44337       1   44316   44298   44310   44334       1
   44313   44292   44310   44334       1   44304   44289   44307   44331       1
   44304   44319   44301   44322       1   44304   44325   44343   44355       1
   44301   44286   44298   44316       1   44298   44286   44301   44322       1
   44298   44310   44292   44313       1   44295   44283   44292   44310       1
   44295   44283   44292   44313       1   44292   44310   44298   44316       1
   44289   44280   44283   44295       1   44289   44304   44319   44337       1
   44289   44307   44328   44346       1   44286   44280   44283   44295       1
   44286   44298   44310   44334       1   44286   44301   44319   44337       1
   44283   44292   44310   44334       1   44280   44283   44292   44313       1
   44280   44286   44298   44316       1   44280   44286   44301   44322       1
   44280   44289   44307   44331       1   44490   44478   44484   44493       1
   44487   44475   44484   44493       1   44481   44469   44478   44484       1
   44481   44469   44478   44490       1   44478   44484   44475   44487       1
   44475   44484   44478   44490       1   44472   44460   44466   44475       1
   44469   44478   44484   44493       1   44466   44457   44469   44481       1
   44466   44475   44484   44493       1   44463   44451   44460   44466       1
   44463   44451   44460   44472       1   44460   44466   44475   44487       1
   44457   44466   44460   44472       1   44457   44466   44475   44487       1
   44457   44469   44478   44490       1   44454   44436   44448   44457       1
   44448   44433   44451   44463       1   44448   44457   44469   44481       1
   44439   44415   44436   44448       1   44439   44415   44436   44454       1
   44433   44412   44427   44445       1   44433   44448   44436   44454       1
   44433   44451   44460   44472       1   44430   44409   44427   44445       1
   44424   44406   44418   44442       1   44421   44400   44418   44442       1
   44412   44397   44415   44439       1   44412   44427   44409   44430       1
   44412   44433   44451   44463       1   44409   44394   44406   44424       1
   44406   44394   44409   44430       1   44406   44418   44400   44421       1
   44403   44391   44400   44418       1   44403   44391   44400   44421       1
   44400   44418   44406   44424       1   44397   44388   44391   44403       1
   44397   44412   44427   44445       1   44397   44415   44436   44454       1
   44394   44388   44391   44403       1   44394   44406   44418   44442       1
   44394   44409   44427   44445       1   44391   44400   44418   44442       1
   44388   44391   44400   44421       1   44388   44394   44406   44424       1
   44388   44394   44409   44430       1   44388   44397   44415   44439       1
   44598   44586   44592   44601       1   44595   44583   44592   44601       1
   44589   44577   44586   44592       1   44589   44577   44586   44598       1
   44586   44592   44583   44595       1   44583   44592   44586   44598       1
   44580   44568   44574   44583       1   44577   44586   44592   44601       1
   44574   44565   44577   44589       1   44574   44583   44592   44601       1
   44571   44559   44568   44574       1   44571   44559   44568   44580       1
   44568   44574   44583   44595       1   44565   44574   44568   44580       1
   44565   44574   44583   44595       1   44565   44577   44586   44598       1
   44562   44544   44556   44565       1   44556   44541   44559   44571       1
   44556   44565   44577   44589       1   44547   44523   44544   44556       1
   44547   44523   44544   44562       1   44541   44520   44535   44553       1
   44541   44556   44544   44562       1   44541   44559   44568   44580       1
   44538   44517   44535   44553       1   44532   44514   44526   44550       1
   44529   44508   44526   44550       1   44520   44505   44523   44547       1
   44520   44535   44517   44538       1   44520   44541   44559   44571       1
   44517   44502   44514   44532       1   44514   44502   44517   44538       1
   44514   44526   44508   44529       1   44511   44499   44508   44526       1
   44511   44499   44508   44529       1   44508   44526   44514   44532       1
   44505   44496   44499   44511       1   44505   44520   44535   44553       1
   44505   44523   44544   44562       1   44502   44496   44499   44511       1
   44502   44514   44526   44550       1   44502   44517   44535   44553       1
   44499   44508   44526   44550       1   44496   44499   44508   44529       1
   44496   44502   44514   44532       1   44496   44502   44517   44538       1
   44496   44505   44523   44547       1   44706   44694   44700   44709       1
   44703   44691   44700   44709       1   44697   44685   44694   44700       1
   44697   44685   44694   44706       1   44694   44700   44691   44703       1
   44691   44700   44694   44706       1   44688   44676   44682   44691       1
   44685   44694   44700   44709       1   44682   44673   44685   44697       1
   44682   44691   44700   44709       1   44679   44667   44676   44682       1
   44679   44667   44676   44688       1   44676   44682   44691   44703       1
   44673   44682   44676   44688       1   44673   44682   44691   44703       1
   44673   44685   44694   44706       1   44670   44652   44664   44673       1
   44664   44649   44667   44679       1   44664   44673   44685   44697       1
   44655   44631   44652   44664       1   44655   44631   44652   44670       1
   44649   44628   44643   44661       1   44649   44664   44652   44670       1
   44649   44667   44676   44688       1   44646   44625   44643   44661       1
   44640   44622   44634   44658       1   44637   44616   44634   44658       1
   44628   44613   44631   44655       1   44628   44643   44625   44646       1
   44628   44649   44667   44679       1   44625   44610   44622   44640       1
   44622   44610   44625   44646       1   44622   44634   44616   44637       1
   44619   44607   44616   44634       1   44619   44607   44616   44637       1
   44616   44634   44622   44640       1   44613   44604   44607   44619       1
   44613   44628   44643   44661       1   44613   44631   44652   44670       1
   44610   44604   44607   44619       1   44610   44622   44634   44658       1
   44610   44625   44643   44661       1   44607   44616   44634   44658       1
   44604   44607   44616   44637       1   44604   44610   44622   44640       1
   44604   44610   44625   44646       1   44604   44613   44631   44655       1
   44814   44802   44808   44817       1   44811   44799   44808   44817       1
   44805   44793   44802   44808       1   44805   44793   44802   44814       1
   44802   44808   44799   44811       1   44799   44808   44802   44814       1
   44796   44784   44790   44799       1   44793   44802   44808   44817       1
   44790   44781   44793   44805       1   44790   44799   44808   44817       1
   44787   44775   44784   44790       1   44787   44775   44784   44796       1
   44784   44790   44799   44811       1   44781   44790   44784   44796       1
   44781   44790   44799   44811       1   44781   44793   44802   44814       1
   44778   44760   44772   44781       1   44772   44757   44775   44787       1
   44772   44781   44793   44805       1   44763   44739   44760   44772       1
   44763   44739   44760   44778       1   44757   44736   44751   44769       1
   44757   44772   44760   44778       1   44757   44775   44784   44796       1
   44754   44733   44751   44769       1   44748   44730   44742   44766       1
   44745   44724   44742   44766       1   44736   44721   44739   44763       1
   44736   44751   44733   44754       1   44736   44757   44775   44787       1
   44733   44718   44730   44748       1   44730   44718   44733   44754       1
   44730   44742   44724   44745       1   44727   44715   44724   44742       1
   44727   44715   44724   44745       1   44724   44742   44730   44748       1
   44721   44712   44715   44727       1   44721   44736   44751   44769       1
   44721   44739   44760   44778       1   44718   44712   44715   44727       1
   44718   44730   44742   44766       1   44718   44733   44751   44769       1
   44715   44724   44742   44766       1   44712   44715   44724   44745       1
   44712   44718   44730   44748       1   44712   44718   44733   44754       1
   44712   44721   44739   44763       1   44922   44910   44916   44925       1
   44919   44907   44916   44925       1   44913   44901   44910   44916       1
   44913   44901   44910   44922       1   44910   44916   44907   44919       1
   44907   44916   44910   44922       1   44904   44892   44898   44907       1
   44901   44910   44916   44925       1   44898   44889   44901   44913       1
   44898   44907   44916   44925       1   44895   44883   44892   44898       1
   44895   44883   44892   44904       1   44892   44898   44907   44919       1
   44889   44898   44892   44904       1   44889   44898   44907   44919       1
   44889   44901   44910   44922       1   44886   44868   44880   44889       1
   44880   44865   44883   44895       1   44880   44889   44901   44913       1
   44871   44847   44868   44880       1   44871   44847   44868   44886       1
   44865   44844   44859   44877       1   44865   44880   44868   44886       1
   44865   44883   44892   44904       1   44862   44841   44859   44877       1
   44856   44838   44850   44874       1   44853   44832   44850   44874       1
   44844   44829   44847   44871       1   44844   44859   44841   44862       1
   44844   44865   44883   44895       1   44841   44826   44838   44856       1
   44838   44826   44841   44862       1   44838   44850   44832   44853       1
   44835   44823   44832   44850       1   44835   44823   44832   44853       1
   44832   44850   44838   44856       1   44829   44820   44823   44835       1
   44829   44844   44859   44877       1   44829   44847   44868   44886       1
   44826   44820   44823   44835       1   44826   44838   44850   44874       1
   44826   44841   44859   44877       1   44823   44832   44850   44874       1
   44820   44823   44832   44853       1   44820   44826   44838   44856       1
   44820   44826   44841   44862       1   44820   44829   44847   44871       1
   45030   45018   45024   45033       1   45027   45015   45024   45033       1
   45021   45009   45018   45024       1   45021   45009   45018   45030       1
   45018   45024   45015   45027       1   45015   45024   45018   45030       1
   45012   45000   45006   45015       1   45009   45018   45024   45033       1
   45006   44997   45009   45021       1   45006   45015   45024   45033       1
   45003   44991   45000   45006       1   45003   44991   45000   45012       1
   45000   45006   45015   45027       1   44997   45006   45000   45012       1
   44997   45006   45015   45027       1   44997   45009   45018   45030       1
   44994   44976   44988   44997       1   44988   44973   44991   45003       1
   44988   44997   45009   45021       1   44979   44955   44976   44988       1
   44979   44955   44976   44994       1   44973   44952   44967   44985       1
   44973   44988   44976   44994       1   44973   44991   45000   45012       1
   44970   44949   44967   44985       1   44964   44946   44958   44982       1
   44961   44940   44958   44982       1   44952   44937   44955   44979       1
   44952   44967   44949   44970       1   44952   44973   44991   45003       1
   44949   44934   44946   44964       1   44946   44934   44949   44970       1
   44946   44958   44940   44961       1   44943   44931   44940   44958       1
   44943   44931   44940   44961       1   44940   44958   44946   44964       1
   44937   44928   44931   44943       1   44937   44952   44967   44985       1
   44937   44955   44976   44994       1   44934   44928   44931   44943       1
   44934   44946   44958   44982       1   44934   44949   44967   44985       1
   44931   44940   44958   44982       1   44928   44931   44940   44961       1
   44928   44934   44946   44964       1   44928   44934   44949   44970       1
   44928   44937   44955   44979       1   45138   45126   45132   45141       1
   45135   45123   45132   45141       1   45129   45117   45126   45132       1
   45129   45117   45126   45138       1   45126   45132   45123   45135       1
   45123   45132   45126   45138       1   45120   45108   45114   45123       1
   45117   45126   45132   45141       1   45114   45105   45117   45129       1
   45114   45123   45132   45141       1   45111   45099   45108   45114       1
   45111   45099   45108   45120       1   45108   45114   45123   45135       1
   45105   45114   45108   45120       1   45105   45114   45123   45135       1
   45105   45117   45126   45138       1   45102   45084   45096   45105       1
   45096   45081   45099   45111       1   45096   45105   45117   45129       1
   45087   45063   45084   45096       1   45087   45063   45084   45102       1
   45081   45060   45075   45093       1   45081   45096   45084   45102       1
   45081   45099   45108   45120       1   45078   45057   45075   45093       1
   45072   45054   45066   45090       1   45069   45048   45066   45090       1
   45060   45045   45063   45087       1   45060   45075   45057   45078       1
   45060   45081   45099   45111       1   45057   45042   45054   45072       1
   45054   45042   45057   45078       1   45054   45066   45048   45069       1
   45051   45039   45048   45066       1   45051   45039   45048   45069       1
   45048   45066   45054   45072       1   45045   45036   45039   45051       1
   45045   45060   45075   45093       1   45045   45063   45084   45102       1
   45042   45036   45039   45051       1   45042   45054   45066   45090       1
   45042   45057   45075   45093       1   45039   45048   45066   45090       1
   45036   45039   45048   45069       1   45036   45042   45054   45072       1
   45036   45042   45057   45078       1   45036   45045   45063   45087       1
   45246   45234   45240   45249       1   45243   45231   45240   45249       1
   45237   45225   45234   45240       1   45237   45225   45234   45246       1
   45234   45240   45231   45243       1   45231   45240   45234   45246       1
   45228   45216   45222   45231       1   45225   45234   45240   45249       1
   45222   45213   45225   45237       1   45222   45231   45240   45249       1
   45219   45207   45216   45222       1   45219   45207   45216   45228       1
   45216   45222   45231   45243       1   45213   45222   45216   45228       1
   45213   45222   45231   45243       1   45213   45225   45234   45246       1
   45210   45192   45204   45213       1   45204   45189   45207   45219       1
   45204   45213   45225   45237       1   45195   45171   45192   45204       1
   45195   45171   45192   45210       1   45189   45168   45183   45201       1
   45189   45204   45192   45210       1   45189   45207   45216   45228       1
   45186   45165   45183   45201       1   45180   45162   45174   45198       1
   45177   45156   45174   45198       1   45168   45153   45171   45195       1
   45168   45183   45165   45186       1   45168   45189   45207   45219       1
   45165   45150   45162   45180       1   45162   45150   45165   45186       1
   45162   45174   45156   45177       1   45159   45147   45156   45174       1
   45159   45147   45156   45177       1   45156   45174   45162   45180       1
   45153   45144   45147   45159       1   45153   45168   45183   45201       1
   45153   45171   45192   45210       1   45150   45144   45147   45159       1
   45150   45162   45174   45198       1   45150   45165   45183   45201       1
   45147   45156   45174   45198       1   45144   45147   45156   45177       1
   45144   45150   45162   45180       1   45144   45150   45165   45186       1
   45144   45153   45171   45195       1   45354   45342   45348   45357       1
   45351   45339   45348   45357       1   45345   45333   45342   45348       1
   45345   45333   45342   45354       1   45342   45348   45339   45351       1
   45339   45348   45342   45354       1   45336   45324   45330   45339       1
   45333   45342   45348   45357       1   45330   45321   45333   45345       1
   45330   45339   45348   45357       1   45327   45315   45324   45330       1
   45327   45315   45324   45336       1   45324   45330   45339   45351       1
   45321   45330   45324   45336       1   45321   45330   45339   45351       1
   45321   45333   45342   45354       1   45318   45300   45312   45321       1
   45312   45297   45315   45327       1   45312   45321   45333   45345       1
   45303   45279   45300   45312       1   45303   45279   45300   45318       1
   45297   45276   45291   45309       1   45297   45312   45300   45318       1
   45297   45315   45324   45336       1   45294   45273   45291   45309       1
   45288   45270   45282   45306       1   45285   45264   45282   45306       1
   45276   45261   45279   45303       1   45276   45291   45273   45294       1
   45276   45297   45315   45327       1   45273   45258   45270   45288       1
   45270   45258   45273   45294       1   45270   45282   45264   45285       1
   45267   45255   45264   45282       1   45267   45255   45264   45285       1
   45264   45282   45270   45288       1   45261   45252   45255   45267       1
   45261   45276   45291   45309       1   45261   45279   45300   45318       1
   45258   45252   45255   45267       1   45258   45270   45282   45306       1
   45258   45273   45291   45309       1   45255   45264   45282   45306       1
   45252   45255   45264   45285       1   45252   45258   45270   45288       1
   45252   45258   45273   45294       1   45252   45261   45279   45303       1
   45462   45450   45456   45465       1   45459   45447   45456   45465       1
   45453   45441   45450   45456       1   45453   45441   45450   45462       1
   45450   45456   45447   45459       1   45447   45456   45450   45462       1
   45444   45432   45438   45447       1   45441   45450   45456   45465       1
   45438   45429   45441   45453       1   45438   45447   45456   45465       1
   45435   45423   45432   45438       1   45435   45423   45432   45444       1
   45432   45438   45447   45459       1   45429   45438   45432   45444       1
   45429   45438   45447   45459       1   45429   45441   45450   45462       1
   45426   45408   45420   45429       1   45420   45405   45423   45435       1
   45420   45429   45441   45453       1   45411   45387   45408   45420       1
   45411   45387   45408   45426       1   45405   45384   45399   45417       1
   45405   45420   45408   45426       1   45405   45423   45432   45444       1
   45402   45381   45399   45417       1   45396   45378   45390   45414       1
   45393   45372   45390   45414       1   45384   45369   45387   45411       1
   45384   45399   45381   45402       1   45384   45405   45423   45435       1
   45381   45366   45378   45396       1   45378   45366   45381   45402       1
   45378   45390   45372   45393       1   45375   45363   45372   45390       1
   45375   45363   45372   45393       1   45372   45390   45378   45396       1
   45369   45360   45363   45375       1   45369   45384   45399   45417       1
   45369   45387   45408   45426       1   45366   45360   45363   45375       1
   45366   45378   45390   45414       1   45366   45381   45399   45417       1
   45363   45372   45390   45414       1   45360   45363   45372   45393       1
   45360   45366   45378   45396       1   45360   45366   45381   45402       1
   45360   45369   45387   45411       1   45570   45558   45564   45573       1
   45567   45555   45564   45573       1   45561   45549   45558   45564       1
   45561   45549   45558   45570       1   45558   45564   45555   45567       1
   45555   45564   45558   45570       1   45552   45540   45546   45555       1
   45549   45558   45564   45573       1   45546   45537   45549   45561       1
   45546   45555   45564   45573       1   45543   45531   45540   45546       1
   45543   45531   45540   45552       1   45540   45546   45555   45567       1
   45537   45546   45540   45552       1   45537   45546   45555   45567       1
   45537   45549   45558   45570       1   45534   45516   45528   45537       1
   45528   45513   45531   45543       1   45528   45537   45549   45561       1
   45519   45495   45516   45528       1   45519   45495   45516   45534       1
   45513   45492   45507   45525       1   45513   45528   45516   45534       1
   45513   45531   45540   45552       1   45510   45489   45507   45525       1
   45504   45486   45498   45522       1   45501   45480   45498   45522       1
   45492   45477   45495   45519       1   45492   45507   45489   45510       1
   45492   45513   45531   45543       1   45489   45474   45486   45504       1
   45486   45474   45489   45510       1   45486   45498   45480   45501       1
   45483   45471   45480   45498       1   45483   45471   45480   45501       1
   45480   45498   45486   45504       1   45477   45468   45471   45483       1
   45477   45492   45507   45525       1   45477   45495   45516   45534       1
   45474   45468   45471   45483       1   45474   45486   45498   45522       1
   45474   45489   45507   45525       1   45471   45480   45498   45522       1
   45468   45471   45480   45501       1   45468   45474   45486   45504       1
   45468   45474   45489   45510       1   45468   45477   45495   45519       1
   45678   45666   45672   45681       1   45675   45663   45672   45681       1
   45669   45657   45666   45672       1   45669   45657   45666   45678       1
   45666   45672   45663   45675       1   45663   45672   45666   45678       1
   45660   45648   45654   45663       1   45657   45666   45672   45681       1
   45654   45645   45657   45669       1   45654   45663   45672   45681       1
   45651   45639   45648   45654       1   45651   45639   45648   45660       1
   45648   45654   45663   45675       1   45645   45654   45648   45660       1
   45645   45654   45663   45675       1   45645   45657   45666   45678       1
   45642   45624   45636   45645       1   45636   45621   45639   45651       1
   45636   45645   45657   45669       1   45627   45603   45624   45636       1
   45627   45603   45624   45642       1   45621   45600   45615   45633       1
   45621   45636   45624   45642       1   45621   45639   45648   45660       1
   45618   45597   45615   45633       1   45612   45594   45606   45630       1
   45609   45588   45606   45630       1   45600   45585   45603   45627       1
   45600   45615   45597   45618       1   45600   45621   45639   45651       1
   45597   45582   45594   45612       1   45594   45582   45597   45618       1
   45594   45606   45588   45609       1   45591   45579   45588   45606       1
   45591   45579   45588   45609       1   45588   45606   45594   45612       1
   45585   45576   45579   45591       1   45585   45600   45615   45633       1
   45585   45603   45624   45642       1   45582   45576   45579   45591       1
   45582   45594   45606   45630       1   45582   45597   45615   45633       1
   45579   45588   45606   45630       1   45576   45579   45588   45609       1
   45576   45582   45594   45612       1   45576   45582   45597   45618       1
   45576   45585   45603   45627       1   45786   45774   45780   45789       1
   45783   45771   45780   45789       1   45777   45765   45774   45780       1
   45777   45765   45774   45786       1   45774   45780   45771   45783       1
   45771   45780   45774   45786       1   45768   45756   45762   45771       1
   45765   45774   45780   45789       1   45762   45753   45765   45777       1
   45762   45771   45780   45789       1   45759   45747   45756   45762       1
   45759   45747   45756   45768       1   45756   45762   45771   45783       1
   45753   45762   45756   45768       1   45753   45762   45771   45783       1
   45753   45765   45774   45786       1   45750   45732   45744   45753       1
   45744   45729   45747   45759       1   45744   45753   45765   45777       1
   45735   45711   45732   45744       1   45735   45711   45732   45750       1
   45729   45708   45723   45741       1   45729   45744   45732   45750       1
   45729   45747   45756   45768       1   45726   45705   45723   45741       1
   45720   45702   45714   45738       1   45717   45696   45714   45738       1
   45708   45693   45711   45735       1   45708   45723   45705   45726       1
   45708   45729   45747   45759       1   45705   45690   45702   45720       1
   45702   45690   45705   45726       1   45702   45714   45696   45717       1
   45699   45687   45696   45714       1   45699   45687   45696   45717       1
   45696   45714   45702   45720       1   45693   45684   45687   45699       1
   45693   45708   45723   45741       1   45693   45711   45732   45750       1
   45690   45684   45687   45699       1   45690   45702   45714   45738       1
   45690   45705   45723   45741       1   45687   45696   45714   45738       1
   45684   45687   45696   45717       1   45684   45690   45702   45720       1
   45684   45690   45705   45726       1   45684   45693   45711   45735       1
   45894   45882   45888   45897       1   45891   45879   45888   45897       1
   45885   45873   45882   45888       1   45885   45873   45882   45894       1
   45882   45888   45879   45891       1   45879   45888   45882   45894       1
   45876   45864   45870   45879       1   45873   45882   45888   45897       1
   45870   45861   45873   45885       1   45870   45879   45888   45897       1
   45867   45855   45864   45870       1   45867   45855   45864   45876       1
   45864   45870   45879   45891       1   45861   45870   45864   45876       1
   45861   45870   45879   45891       1   45861   45873   45882   45894       1
   45858   45840   45852   45861       1   45852   45837   45855   45867       1
   45852   45861   45873   45885       1   45843   45819   45840   45852       1
   45843   45819   45840   45858       1   45837   45816   45831   45849       1
   45837   45852   45840   45858       1   45837   45855   45864   45876       1
   45834   45813   45831   45849       1   45828   45810   45822   45846       1
   45825   45804   45822   45846       1   45816   45801   45819   45843       1
   45816   45831   45813   45834       1   45816   45837   45855   45867       1
   45813   45798   45810   45828       1   45810   45798   45813   45834       1
   45810   45822   45804   45825       1   45807   45795   45804   45822       1
   45807   45795   45804   45825       1   45804   45822   45810   45828       1
   45801   45792   45795   45807       1   45801   45816   45831   45849       1
   45801   45819   45840   45858       1   45798   45792   45795   45807       1
   45798   45810   45822   45846       1   45798   45813   45831   45849       1
   45795   45804   45822   45846       1   45792   45795   45804   45825       1
   45792   45798   45810   45828       1   45792   45798   45813   45834       1
   45792   45801   45819   45843       1   46002   45990   45996   46005       1
   45999   45987   45996   46005       1   45993   45981   45990   45996       1
   45993   45981   45990   46002       1   45990   45996   45987   45999       1
   45987   45996   45990   46002       1   45984   45972   45978   45987       1
   45981   45990   45996   46005       1   45978   45969   45981   45993       1
   45978   45987   45996   46005       1   45975   45963   45972   45978       1
   45975   45963   45972   45984       1   45972   45978   45987   45999       1
   45969   45978   45972   45984       1   45969   45978   45987   45999       1
   45969   45981   45990   46002       1   45966   45948   45960   45969       1
   45960   45945   45963   45975       1   45960   45969   45981   45993       1
   45951   45927   45948   45960       1   45951   45927   45948   45966       1
   45945   45924   45939   45957       1   45945   45960   45948   45966       1
   45945   45963   45972   45984       1   45942   45921   45939   45957       1
   45936   45918   45930   45954       1   45933   45912   45930   45954       1
   45924   45909   45927   45951       1   45924   45939   45921   45942       1
   45924   45945   45963   45975       1   45921   45906   45918   45936       1
   45918   45906   45921   45942       1   45918   45930   45912   45933       1
   45915   45903   45912   45930       1   45915   45903   45912   45933       1
   45912   45930   45918   45936       1   45909   45900   45903   45915       1
   45909   45924   45939   45957       1   45909   45927   45948   45966       1
   45906   45900   45903   45915       1   45906   45918   45930   45954       1
   45906   45921   45939   45957       1   45903   45912   45930   45954       1
   45900   45903   45912   45933       1   45900   45906   45918   45936       1
   45900   45906   45921   45942       1   45900   45909   45927   45951       1
   46110   46098   46104   46113       1   46107   46095   46104   46113       1
   46101   46089   46098   46104       1   46101   46089   46098   46110       1
   46098   46104   46095   46107       1   46095   46104   46098   46110       1
   46092   46080   46086   46095       1   46089   46098   46104   46113       1
   46086   46077   46089   46101       1   46086   46095   46104   46113       1
   46083   46071   46080   46086       1   46083   46071   46080   46092       1
   46080   46086   46095   46107       1   46077   46086   46080   46092       1
   46077   46086   46095   46107       1   46077   46089   46098   46110       1
   46074   46056   46068   46077       1   46068   46053   46071   46083       1
   46068   46077   46089   46101       1   46059   46035   46056   46068       1
   46059   46035   46056   46074       1   46053   46032   46047   46065       1
   46053   46068   46056   46074       1   46053   46071   46080   46092       1
   46050   46029   46047   46065       1   46044   46026   46038   46062       1
   46041   46020   46038   46062       1   46032   46017   46035   46059       1
   46032   46047   46029   46050       1   46032   46053   46071   46083       1
   46029   46014   46026   46044       1   46026   46014   46029   46050       1
   46026   46038   46020   46041       1   46023   46011   46020   46038       1
   46023   46011   46020   46041       1   46020   46038   46026   46044       1
   46017   46008   46011   46023       1   46017   46032   46047   46065       1
   46017   46035   46056   46074       1   46014   46008   46011   46023       1
   46014   46026   46038   46062       1   46014   46029   46047   46065       1
   46011   46020   46038   46062       1   46008   46011   46020   46041       1
   46008   46014   46026   46044       1   46008   46014   46029   46050       1
   46008   46017   46035   46059       1   46218   46206   46212   46221       1
   46215   46203   46212   46221       1   46209   46197   46206   46212       1
   46209   46197   46206   46218       1   46206   46212   46203   46215       1
   46203   46212   46206   46218       1   46200   46188   46194   46203       1
   46197   46206   46212   46221       1   46194   46185   46197   46209       1
   46194   46203   46212   46221       1   46191   46179   46188   46194       1
   46191   46179   46188   46200       1   46188   46194   46203   46215       1
   46185   46194   46188   46200       1   46185   46194   46203   46215       1
   46185   46197   46206   46218       1   46182   46164   46176   46185       1
   46176   46161   46179   46191       1   46176   46185   46197   46209       1
   46167   46143   46164   46176       1   46167   46143   46164   46182       1
   46161   46140   46155   46173       1   46161   46176   46164   46182       1
   46161   46179   46188   46200       1   46158   46137   46155   46173       1
   46152   46134   46146   46170       1   46149   46128   46146   46170       1
   46140   46125   46143   46167       1   46140   46155   46137   46158       1
   46140   46161   46179   46191       1   46137   46122   46134   46152       1
   46134   46122   46137   46158       1   46134   46146   46128   46149       1
   46131   46119   46128   46146       1   46131   46119   46128   46149       1
   46128   46146   46134   46152       1   46125   46116   46119   46131       1
   46125   46140   46155   46173       1   46125   46143   46164   46182       1
   46122   46116   46119   46131       1   46122   46134   46146   46170       1
   46122   46137   46155   46173       1   46119   46128   46146   46170       1
   46116   46119   46128   46149       1   46116   46122   46134   46152       1
   46116   46122   46137   46158       1   46116   46125   46143   46167       1
   46326   46314   46320   46329       1   46323   46311   46320   46329       1
   46317   46305   46314   46320       1   46317   46305   46314   46326       1
   46314   46320   46311   46323       1   46311   46320   46314   46326       1
   46308   46296   46302   46311       1   46305   46314   46320   46329       1
   46302   46293   46305   46317       1   46302   46311   46320   46329       1
   46299   46287   46296   46302       1   46299   46287   46296   46308       1
   46296   46302   46311   46323       1   46293   46302   46296   46308       1
   46293   46302   46311   46323       1   46293   46305   46314   46326       1
   46290   46272   46284   46293       1   46284   46269   46287   46299       1
   46284   46293   46305   46317       1   46275   46251   46272   46284       1
   46275   46251   46272   46290       1   46269   46248   46263   46281       1
   46269   46284   46272   46290       1   46269   46287   46296   46308       1
   46266   46245   46263   46281       1   46260   46242   46254   46278       1
   46257   46236   46254   46278       1   46248   46233   46251   46275       1
   46248   46263   46245   46266       1   46248   46269   46287   46299       1
   46245   46230   46242   46260       1   46242   46230   46245   46266       1
   46242   46254   46236   46257       1   46239   46227   46236   46254       1
   46239   46227   46236   46257       1   46236   46254   46242   46260       1
   46233   46224   46227   46239       1   46233   46248   46263   46281       1
   46233   46251   46272   46290       1   46230   46224   46227   46239       1
   46230   46242   46254   46278       1   46230   46245   46263   46281       1
   46227   46236   46254   46278       1   46224   46227   46236   46257       1
   46224   46230   46242   46260       1   46224   46230   46245   46266       1
   46224   46233   46251   46275       1   46434   46422   46428   46437       1
   46431   46419   46428   46437       1   46425   46413   46422   46428       1
   46425   46413   46422   46434       1   46422   46428   46419   46431       1
   46419   46428   46422   46434       1   46416   46404   46410   46419       1
   46413   46422   46428   46437       1   46410   46401   46413   46425       1
   46410   46419   46428   46437       1   46407   46395   46404   46410       1
   46407   46395   46404   46416       1   46404   46410   46419   46431       1
   46401   46410   46404   46416       1   46401   46410   46419   46431       1
   46401   46413   46422   46434       1   46398   46380   46392   46401       1
   46392   46377   46395   46407       1   46392   46401   46413   46425       1
   46383   46359   46380   46392       1   46383   46359   46380   46398       1
   46377   46356   46371   46389       1   46377   46392   46380   46398       1
   46377   46395   46404   46416       1   46374   46353   46371   46389       1
   46368   46350   46362   46386       1   46365   46344   46362   46386       1
   46356   46341   46359   46383       1   46356   46371   46353   46374       1
   46356   46377   46395   46407       1   46353   46338   46350   46368       1
   46350   46338   46353   46374       1   46350   46362   46344   46365       1
   46347   46335   46344   46362       1   46347   46335   46344   46365       1
   46344   46362   46350   46368       1   46341   46332   46335   46347       1
   46341   46356   46371   46389       1   46341   46359   46380   46398       1
   46338   46332   46335   46347       1   46338   46350   46362   46386       1
   46338   46353   46371   46389       1   46335   46344   46362   46386       1
   46332   46335   46344   46365       1   46332   46338   46350   46368       1
   46332   46338   46353   46374       1   46332   46341   46359   46383       1
   46542   46530   46536   46545       1   46539   46527   46536   46545       1
   46533   46521   46530   46536       1   46533   46521   46530   46542       1
   46530   46536   46527   46539       1   46527   46536   46530   46542       1
   46524   46512   46518   46527       1   46521   46530   46536   46545       1
   46518   46509   46521   46533       1   46518   46527   46536   46545       1
   46515   46503   46512   46518       1   46515   46503   46512   46524       1
   46512   46518   46527   46539       1   46509   46518   46512   46524       1
   46509   46518   46527   46539       1   46509   46521   46530   46542       1
   46506   46488   46500   46509       1   46500   46485   46503   46515       1
   46500   46509   46521   46533       1   46491   46467   46488   46500       1
   46491   46467   46488   46506       1   46485   46464   46479   46497       1
   46485   46500   46488   46506       1   46485   46503   46512   46524       1
   46482   46461   46479   46497       1   46476   46458   46470   46494       1
   46473   46452   46470   46494       1   46464   46449   46467   46491       1
   46464   46479   46461   46482       1   46464   46485   46503   46515       1
   46461   46446   46458   46476       1   46458   46446   46461   46482       1
   46458   46470   46452   46473       1   46455   46443   46452   46470       1
   46455   46443   46452   46473       1   46452   46470   46458   46476       1
   46449   46440   46443   46455       1   46449   46464   46479   46497       1
   46449   46467   46488   46506       1   46446   46440   46443   46455       1
   46446   46458   46470   46494       1   46446   46461   46479   46497       1
   46443   46452   46470   46494       1   46440   46443   46452   46473       1
   46440   46446   46458   46476       1   46440   46446   46461   46482       1
   46440   46449   46467   46491       1   46650   46638   46644   46653       1
   46647   46635   46644   46653       1   46641   46629   46638   46644       1
   46641   46629   46638   46650       1   46638   46644   46635   46647       1
   46635   46644   46638   46650       1   46632   46620   46626   46635       1
   46629   46638   46644   46653       1   46626   46617   46629   46641       1
   46626   46635   46644   46653       1   46623   46611   46620   46626       1
   46623   46611   46620   46632       1   46620   46626   46635   46647       1
   46617   46626   46620   46632       1   46617   46626   46635   46647       1
   46617   46629   46638   46650       1   46614   46596   46608   46617       1
   46608   46593   46611   46623       1   46608   46617   46629   46641       1
   46599   46575   46596   46608       1   46599   46575   46596   46614       1
   46593   46572   46587   46605       1   46593   46608   46596   46614       1
   46593   46611   46620   46632       1   46590   46569   46587   46605       1
   46584   46566   46578   46602       1   46581   46560   46578   46602       1
   46572   46557   46575   46599       1   46572   46587   46569   46590       1
   46572   46593   46611   46623       1   46569   46554   46566   46584       1
   46566   46554   46569   46590       1   46566   46578   46560   46581       1
   46563   46551   46560   46578       1   46563   46551   46560   46581       1
   46560   46578   46566   46584       1   46557   46548   46551   46563       1
   46557   46572   46587   46605       1   46557   46575   46596   46614       1
   46554   46548   46551   46563       1   46554   46566   46578   46602       1
   46554   46569   46587   46605       1   46551   46560   46578   46602       1
   46548   46551   46560   46581       1   46548   46554   46566   46584       1
   46548   46554   46569   46590       1   46548   46557   46575   46599       1
   46758   46746   46752   46761       1   46755   46743   46752   46761       1
   46749   46737   46746   46752       1   46749   46737   46746   46758       1
   46746   46752   46743   46755       1   46743   46752   46746   46758       1
   46740   46728   46734   46743       1   46737   46746   46752   46761       1
   46734   46725   46737   46749       1   46734   46743   46752   46761       1
   46731   46719   46728   46734       1   46731   46719   46728   46740       1
   46728   46734   46743   46755       1   46725   46734   46728   46740       1
   46725   46734   46743   46755       1   46725   46737   46746   46758       1
   46722   46704   46716   46725       1   46716   46701   46719   46731       1
   46716   46725   46737   46749       1   46707   46683   46704   46716       1
   46707   46683   46704   46722       1   46701   46680   46695   46713       1
   46701   46716   46704   46722       1   46701   46719   46728   46740       1
   46698   46677   46695   46713       1   46692   46674   46686   46710       1
   46689   46668   46686   46710       1   46680   46665   46683   46707       1
   46680   46695   46677   46698       1   46680   46701   46719   46731       1
   46677   46662   46674   46692       1   46674   46662   46677   46698       1
   46674   46686   46668   46689       1   46671   46659   46668   46686       1
   46671   46659   46668   46689       1   46668   46686   46674   46692       1
   46665   46656   46659   46671       1   46665   46680   46695   46713       1
   46665   46683   46704   46722       1   46662   46656   46659   46671       1
   46662   46674   46686   46710       1   46662   46677   46695   46713       1
   46659   46668   46686   46710       1   46656   46659   46668   46689       1
   46656   46662   46674   46692       1   46656   46662   46677   46698       1
   46656   46665   46683   46707       1   46866   46854   46860   46869       1
   46863   46851   46860   46869       1   46857   46845   46854   46860       1
   46857   46845   46854   46866       1   46854   46860   46851   46863       1
   46851   46860   46854   46866       1   46848   46836   46842   46851       1
   46845   46854   46860   46869       1   46842   46833   46845   46857       1
   46842   46851   46860   46869       1   46839   46827   46836   46842       1
   46839   46827   46836   46848       1   46836   46842   46851   46863       1
   46833   46842   46836   46848       1   46833   46842   46851   46863       1
   46833   46845   46854   46866       1   46830   46812   46824   46833       1
   46824   46809   46827   46839       1   46824   46833   46845   46857       1
   46815   46791   46812   46824       1   46815   46791   46812   46830       1
   46809   46788   46803   46821       1   46809   46824   46812   46830       1
   46809   46827   46836   46848       1   46806   46785   46803   46821       1
   46800   46782   46794   46818       1   46797   46776   46794   46818       1
   46788   46773   46791   46815       1   46788   46803   46785   46806       1
   46788   46809   46827   46839       1   46785   46770   46782   46800       1
   46782   46770   46785   46806       1   46782   46794   46776   46797       1
   46779   46767   46776   46794       1   46779   46767   46776   46797       1
   46776   46794   46782   46800       1   46773   46764   46767   46779       1
   46773   46788   46803   46821       1   46773   46791   46812   46830       1
   46770   46764   46767   46779       1   46770   46782   46794   46818       1
   46770   46785   46803   46821       1   46767   46776   46794   46818       1
   46764   46767   46776   46797       1   46764   46770   46782   46800       1
   46764   46770   46785   46806       1   46764   46773   46791   46815       1
   46974   46962   46968   46977       1   46971   46959   46968   46977       1
   46965   46953   46962   46968       1   46965   46953   46962   46974       1
   46962   46968   46959   46971       1   46959   46968   46962   46974       1
   46956   46944   46950   46959       1   46953   46962   46968   46977       1
   46950   46941   46953   46965       1   46950   46959   46968   46977       1
   46947   46935   46944   46950       1   46947   46935   46944   46956       1
   46944   46950   46959   46971       1   46941   46950   46944   46956       1
   46941   46950   46959   46971       1   46941   46953   46962   46974       1
   46938   46920   46932   46941       1   46932   46917   46935   46947       1
   46932   46941   46953   46965       1   46923   46899   46920   46932       1
   46923   46899   46920   46938       1   46917   46896   46911   46929       1
   46917   46932   46920   46938       1   46917   46935   46944   46956       1
   46914   46893   46911   46929       1   46908   46890   46902   46926       1
   46905   46884   46902   46926       1   46896   46881   46899   46923       1
   46896   46911   46893   46914       1   46896   46917   46935   46947       1
   46893   46878   46890   46908       1   46890   46878   46893   46914       1
   46890   46902   46884   46905       1   46887   46875   46884   46902       1
   46887   46875   46884   46905       1   46884   46902   46890   46908       1
   46881   46872   46875   46887       1   46881   46896   46911   46929       1
   46881   46899   46920   46938       1   46878   46872   46875   46887       1
   46878   46890   46902   46926       1   46878   46893   46911   46929       1
   46875   46884   46902   46926       1   46872   46875   46884   46905       1
   46872   46878   46890   46908       1   46872   46878   46893   46914       1
   46872   46881   46899   46923       1   47082   47070   47076   47085       1
   47079   47067   47076   47085       1   47073   47061   47070   47076       1
   47073   47061   47070   47082       1   47070   47076   47067   47079       1
   47067   47076   47070   47082       1   47064   47052   47058   47067       1
   47061   47070   47076   47085       1   47058   47049   47061   47073       1
   47058   47067   47076   47085       1   47055   47043   47052   47058       1
   47055   47043   47052   47064       1   47052   47058   47067   47079       1
   47049   47058   47052   47064       1   47049   47058   47067   47079       1
   47049   47061   47070   47082       1   47046   47028   47040   47049       1
   47040   47025   47043   47055       1   47040   47049   47061   47073       1
   47031   47007   47028   47040       1   47031   47007   47028   47046       1
   47025   47004   47019   47037       1   47025   47040   47028   47046       1
   47025   47043   47052   47064       1   47022   47001   47019   47037       1
   47016   46998   47010   47034       1   47013   46992   47010   47034       1
   47004   46989   47007   47031       1   47004   47019   47001   47022       1
   47004   47025   47043   47055       1   47001   46986   46998   47016       1
   46998   46986   47001   47022       1   46998   47010   46992   47013       1
   46995   46983   46992   47010       1   46995   46983   46992   47013       1
   46992   47010   46998   47016       1   46989   46980   46983   46995       1
   46989   47004   47019   47037       1   46989   47007   47028   47046       1
   46986   46980   46983   46995       1   46986   46998   47010   47034       1
   46986   47001   47019   47037       1   46983   46992   47010   47034       1
   46980   46983   46992   47013       1   46980   46986   46998   47016       1
   46980   46986   47001   47022       1   46980   46989   47007   47031       1
   47190   47178   47184   47193       1   47187   47175   47184   47193       1
   47181   47169   47178   47184       1   47181   47169   47178   47190       1
   47178   47184   47175   47187       1   47175   47184   47178   47190       1
   47172   47160   47166   47175       1   47169   47178   47184   47193       1
   47166   47157   47169   47181       1   47166   47175   47184   47193       1
   47163   47151   47160   47166       1   47163   47151   47160   47172       1
   47160   47166   47175   47187       1   47157   47166   47160   47172       1
   47157   47166   47175   47187       1   47157   47169   47178   47190       1
   47154   47136   47148   47157       1   47148   47133   47151   47163       1
   47148   47157   47169   47181       1   47139   47115   47136   47148       1
   47139   47115   47136   47154       1   47133   47112   47127   47145       1
   47133   47148   47136   47154       1   47133   47151   47160   47172       1
   47130   47109   47127   47145       1   47124   47106   47118   47142       1
   47121   47100   47118   47142       1   47112   47097   47115   47139       1
   47112   47127   47109   47130       1   47112   47133   47151   47163       1
   47109   47094   47106   47124       1   47106   47094   47109   47130       1
   47106   47118   47100   47121       1   47103   47091   47100   47118       1
   47103   47091   47100   47121       1   47100   47118   47106   47124       1
   47097   47088   47091   47103       1   47097   47112   47127   47145       1
   47097   47115   47136   47154       1   47094   47088   47091   47103       1
   47094   47106   47118   47142       1   47094   47109   47127   47145       1
   47091   47100   47118   47142       1   47088   47091   47100   47121       1
   47088   47094   47106   47124       1   47088   47094   47109   47130       1
   47088   47097   47115   47139       1   47298   47286   47292   47301       1
   47295   47283   47292   47301       1   47289   47277   47286   47292       1
   47289   47277   47286   47298       1   47286   47292   47283   47295       1
   47283   47292   47286   47298       1   47280   47268   47274   47283       1
   47277   47286   47292   47301       1   47274   47265   47277   47289       1
   47274   47283   47292   47301       1   47271   47259   47268   47274       1
   47271   47259   47268   47280       1   47268   47274   47283   47295       1
   47265   47274   47268   47280       1   47265   47274   47283   47295       1
   47265   47277   47286   47298       1   47262   47244   47256   47265       1
   47256   47241   47259   47271       1   47256   47265   47277   47289       1
   47247   47223   47244   47256       1   47247   47223   47244   47262       1
   47241   47220   47235   47253       1   47241   47256   47244   47262       1
   47241   47259   47268   47280       1   47238   47217   47235   47253       1
   47232   47214   47226   47250       1   47229   47208   47226   47250       1
   47220   47205   47223   47247       1   47220   47235   47217   47238       1
   47220   47241   47259   47271       1   47217   47202   47214   47232       1
   47214   47202   47217   47238       1   47214   47226   47208   47229       1
   47211   47199   47208   47226       1   47211   47199   47208   47229       1
   47208   47226   47214   47232       1   47205   47196   47199   47211       1
   47205   47220   47235   47253       1   47205   47223   47244   47262       1
   47202   47196   47199   47211       1   47202   47214   47226   47250       1
   47202   47217   47235   47253       1   47199   47208   47226   47250       1
   47196   47199   47208   47229       1   47196   47202   47214   47232       1
   47196   47202   47217   47238       1   47196   47205   47223   47247       1
   47406   47394   47400   47409       1   47403   47391   47400   47409       1
   47397   47385   47394   47400       1   47397   47385   47394   47406       1
   47394   47400   47391   47403       1   47391   47400   47394   47406       1
   47388   47376   47382   47391       1   47385   47394   47400   47409       1
   47382   47373   47385   47397       1   47382   47391   47400   47409       1
   47379   47367   47376   47382       1   47379   47367   47376   47388       1
   47376   47382   47391   47403       1   47373   47382   47376   47388       1
   47373   47382   47391   47403       1   47373   47385   47394   47406       1
   47370   47352   47364   47373       1   47364   47349   47367   47379       1
   47364   47373   47385   47397       1   47355   47331   47352   47364       1
   47355   47331   47352   47370       1   47349   47328   47343   47361       1
   47349   47364   47352   47370       1   47349   47367   47376   47388       1
   47346   47325   47343   47361       1   47340   47322   47334   47358       1
   47337   47316   47334   47358       1   47328   47313   47331   47355       1
   47328   47343   47325   47346       1   47328   47349   47367   47379       1
   47325   47310   47322   47340       1   47322   47310   47325   47346       1
   47322   47334   47316   47337       1   47319   47307   47316   47334       1
   47319   47307   47316   47337       1   47316   47334   47322   47340       1
   47313   47304   47307   47319       1   47313   47328   47343   47361       1
   47313   47331   47352   47370       1   47310   47304   47307   47319       1
   47310   47322   47334   47358       1   47310   47325   47343   47361       1
   47307   47316   47334   47358       1   47304   47307   47316   47337       1
   47304   47310   47322   47340       1   47304   47310   47325   47346       1
   47304   47313   47331   47355       1   47514   47502   47508   47517       1
   47511   47499   47508   47517       1   47505   47493   47502   47508       1
   47505   47493   47502   47514       1   47502   47508   47499   47511       1
   47499   47508   47502   47514       1   47496   47484   47490   47499       1
   47493   47502   47508   47517       1   47490   47481   47493   47505       1
   47490   47499   47508   47517       1   47487   47475   47484   47490       1
   47487   47475   47484   47496       1   47484   47490   47499   47511       1
   47481   47490   47484   47496       1   47481   47490   47499   47511       1
   47481   47493   47502   47514       1   47478   47460   47472   47481       1
   47472   47457   47475   47487       1   47472   47481   47493   47505       1
   47463   47439   47460   47472       1   47463   47439   47460   47478       1
   47457   47436   47451   47469       1   47457   47472   47460   47478       1
   47457   47475   47484   47496       1   47454   47433   47451   47469       1
   47448   47430   47442   47466       1   47445   47424   47442   47466       1
   47436   47421   47439   47463       1   47436   47451   47433   47454       1
   47436   47457   47475   47487       1   47433   47418   47430   47448       1
   47430   47418   47433   47454       1   47430   47442   47424   47445       1
   47427   47415   47424   47442       1   47427   47415   47424   47445       1
   47424   47442   47430   47448       1   47421   47412   47415   47427       1
   47421   47436   47451   47469       1   47421   47439   47460   47478       1
   47418   47412   47415   47427       1   47418   47430   47442   47466       1
   47418   47433   47451   47469       1   47415   47424   47442   47466       1
   47412   47415   47424   47445       1   47412   47418   47430   47448       1
   47412   47418   47433   47454       1   47412   47421   47439   47463       1
   47622   47610   47616   47625       1   47619   47607   47616   47625       1
   47613   47601   47610   47616       1   47613   47601   47610   47622       1
   47610   47616   47607   47619       1   47607   47616   47610   47622       1
   47604   47592   47598   47607       1   47601   47610   47616   47625       1
   47598   47589   47601   47613       1   47598   47607   47616   47625       1
   47595   47583   47592   47598       1   47595   47583   47592   47604       1
   47592   47598   47607   47619       1   47589   47598   47592   47604       1
   47589   47598   47607   47619       1   47589   47601   47610   47622       1
   47586   47568   47580   47589       1   47580   47565   47583   47595       1
   47580   47589   47601   47613       1   47571   47547   47568   47580       1
   47571   47547   47568   47586       1   47565   47544   47559   47577       1
   47565   47580   47568   47586       1   47565   47583   47592   47604       1
   47562   47541   47559   47577       1   47556   47538   47550   47574       1
   47553   47532   47550   47574       1   47544   47529   47547   47571       1
   47544   47559   47541   47562       1   47544   47565   47583   47595       1
   47541   47526   47538   47556       1   47538   47526   47541   47562       1
   47538   47550   47532   47553       1   47535   47523   47532   47550       1
   47535   47523   47532   47553       1   47532   47550   47538   47556       1
   47529   47520   47523   47535       1   47529   47544   47559   47577       1
   47529   47547   47568   47586       1   47526   47520   47523   47535       1
   47526   47538   47550   47574       1   47526   47541   47559   47577       1
   47523   47532   47550   47574       1   47520   47523   47532   47553       1
   47520   47526   47538   47556       1   47520   47526   47541   47562       1
   47520   47529   47547   47571       1   47730   47718   47724   47733       1
   47727   47715   47724   47733       1   47721   47709   47718   47724       1
   47721   47709   47718   47730       1   47718   47724   47715   47727       1
   47715   47724   47718   47730       1   47712   47700   47706   47715       1
   47709   47718   47724   47733       1   47706   47697   47709   47721       1
   47706   47715   47724   47733       1   47703   47691   47700   47706       1
   47703   47691   47700   47712       1   47700   47706   47715   47727       1
   47697   47706   47700   47712       1   47697   47706   47715   47727       1
   47697   47709   47718   47730       1   47694   47676   47688   47697       1
   47688   47673   47691   47703       1   47688   47697   47709   47721       1
   47679   47655   47676   47688       1   47679   47655   47676   47694       1
   47673   47652   47667   47685       1   47673   47688   47676   47694       1
   47673   47691   47700   47712       1   47670   47649   47667   47685       1
   47664   47646   47658   47682       1   47661   47640   47658   47682       1
   47652   47637   47655   47679       1   47652   47667   47649   47670       1
   47652   47673   47691   47703       1   47649   47634   47646   47664       1
   47646   47634   47649   47670       1   47646   47658   47640   47661       1
   47643   47631   47640   47658       1   47643   47631   47640   47661       1
   47640   47658   47646   47664       1   47637   47628   47631   47643       1
   47637   47652   47667   47685       1   47637   47655   47676   47694       1
   47634   47628   47631   47643       1   47634   47646   47658   47682       1
   47634   47649   47667   47685       1   47631   47640   47658   47682       1
   47628   47631   47640   47661       1   47628   47634   47646   47664       1
   47628   47634   47649   47670       1   47628   47637   47655   47679       1
   47838   47826   47832   47841       1   47835   47823   47832   47841       1
   47829   47817   47826   47832       1   47829   47817   47826   47838       1
   47826   47832   47823   47835       1   47823   47832   47826   47838       1
   47820   47808   47814   47823       1   47817   47826   47832   47841       1
   47814   47805   47817   47829       1   47814   47823   47832   47841       1
   47811   47799   47808   47814       1   47811   47799   47808   47820       1
   47808   47814   47823   47835       1   47805   47814   47808   47820       1
   47805   47814   47823   47835       1   47805   47817   47826   47838       1
   47802   47784   47796   47805       1   47796   47781   47799   47811       1
   47796   47805   47817   47829       1   47787   47763   47784   47796       1
   47787   47763   47784   47802       1   47781   47760   47775   47793       1
   47781   47796   47784   47802       1   47781   47799   47808   47820       1
   47778   47757   47775   47793       1   47772   47754   47766   47790       1
   47769   47748   47766   47790       1   47760   47745   47763   47787       1
   47760   47775   47757   47778       1   47760   47781   47799   47811       1
   47757   47742   47754   47772       1   47754   47742   47757   47778       1
   47754   47766   47748   47769       1   47751   47739   47748   47766       1
   47751   47739   47748   47769       1   47748   47766   47754   47772       1
   47745   47736   47739   47751       1   47745   47760   47775   47793       1
   47745   47763   47784   47802       1   47742   47736   47739   47751       1
   47742   47754   47766   47790       1   47742   47757   47775   47793       1
   47739   47748   47766   47790       1   47736   47739   47748   47769       1
   47736   47742   47754   47772       1   47736   47742   47757   47778       1
   47736   47745   47763   47787       1   47946   47934   47940   47949       1
   47943   47931   47940   47949       1   47937   47925   47934   47940       1
   47937   47925   47934   47946       1   47934   47940   47931   47943       1
   47931   47940   47934   47946       1   47928   47916   47922   47931       1
   47925   47934   47940   47949       1   47922   47913   47925   47937       1
   47922   47931   47940   47949       1   47919   47907   47916   47922       1
   47919   47907   47916   47928       1   47916   47922   47931   47943       1
   47913   47922   47916   47928       1   47913   47922   47931   47943       1
   47913   47925   47934   47946       1   47910   47892   47904   47913       1
   47904   47889   47907   47919       1   47904   47913   47925   47937       1
   47895   47871   47892   47904       1   47895   47871   47892   47910       1
   47889   47868   47883   47901       1   47889   47904   47892   47910       1
   47889   47907   47916   47928       1   47886   47865   47883   47901       1
   47880   47862   47874   47898       1   47877   47856   47874   47898       1
   47868   47853   47871   47895       1   47868   47883   47865   47886       1
   47868   47889   47907   47919       1   47865   47850   47862   47880       1
   47862   47850   47865   47886       1   47862   47874   47856   47877       1
   47859   47847   47856   47874       1   47859   47847   47856   47877       1
   47856   47874   47862   47880       1   47853   47844   47847   47859       1
   47853   47868   47883   47901       1   47853   47871   47892   47910       1
   47850   47844   47847   47859       1   47850   47862   47874   47898       1
   47850   47865   47883   47901       1   47847   47856   47874   47898       1
   47844   47847   47856   47877       1   47844   47850   47862   47880       1
   47844   47850   47865   47886       1   47844   47853   47871   47895       1
   48054   48042   48048   48057       1   48051   48039   48048   48057       1
   48045   48033   48042   48048       1   48045   48033   48042   48054       1
   48042   48048   48039   48051       1   48039   48048   48042   48054       1
   48036   48024   48030   48039       1   48033   48042   48048   48057       1
   48030   48021   48033   48045       1   48030   48039   48048   48057       1
   48027   48015   48024   48030       1   48027   48015   48024   48036       1
   48024   48030   48039   48051       1   48021   48030   48024   48036       1
   48021   48030   48039   48051       1   48021   48033   48042   48054       1
   48018   48000   48012   48021       1   48012   47997   48015   48027       1
   48012   48021   48033   48045       1   48003   47979   48000   48012       1
   48003   47979   48000   48018       1   47997   47976   47991   48009       1
   47997   48012   48000   48018       1   47997   48015   48024   48036       1
   47994   47973   47991   48009       1   47988   47970   47982   48006       1
   47985   47964   47982   48006       1   47976   47961   47979   48003       1
   47976   47991   47973   47994       1   47976   47997   48015   48027       1
   47973   47958   47970   47988       1   47970   47958   47973   47994       1
   47970   47982   47964   47985       1   47967   47955   47964   47982       1
   47967   47955   47964   47985       1   47964   47982   47970   47988       1
   47961   47952   47955   47967       1   47961   47976   47991   48009       1
   47961   47979   48000   48018       1   47958   47952   47955   47967       1
   47958   47970   47982   48006       1   47958   47973   47991   48009       1
   47955   47964   47982   48006       1   47952   47955   47964   47985       1
   47952   47958   47970   47988       1   47952   47958   47973   47994       1
   47952   47961   47979   48003       1   48162   48150   48156   48165       1
   48159   48147   48156   48165       1   48153   48141   48150   48156       1
   48153   48141   48150   48162       1   48150   48156   48147   48159       1
   48147   48156   48150   48162       1   48144   48132   48138   48147       1
   48141   48150   48156   48165       1   48138   48129   48141   48153       1
   48138   48147   48156   48165       1   48135   48123   48132   48138       1
   48135   48123   48132   48144       1   48132   48138   48147   48159       1
   48129   48138   48132   48144       1   48129   48138   48147   48159       1
   48129   48141   48150   48162       1   48126   48108   48120   48129       1
   48120   48105   48123   48135       1   48120   48129   48141   48153       1
   48111   48087   48108   48120       1   48111   48087   48108   48126       1
   48105   48084   48099   48117       1   48105   48120   48108   48126       1
   48105   48123   48132   48144       1   48102   48081   48099   48117       1
   48096   48078   48090   48114       1   48093   48072   48090   48114       1
   48084   48069   48087   48111       1   48084   48099   48081   48102       1
   48084   48105   48123   48135       1   48081   48066   48078   48096       1
   48078   48066   48081   48102       1   48078   48090   48072   48093       1
   48075   48063   48072   48090       1   48075   48063   48072   48093       1
   48072   48090   48078   48096       1   48069   48060   48063   48075       1
   48069   48084   48099   48117       1   48069   48087   48108   48126       1
   48066   48060   48063   48075       1   48066   48078   48090   48114       1
   48066   48081   48099   48117       1   48063   48072   48090   48114       1
   48060   48063   48072   48093       1   48060   48066   48078   48096       1
   48060   48066   48081   48102       1   48060   48069   48087   48111       1
   48270   48258   48264   48273       1   48267   48255   48264   48273       1
   48261   48249   48258   48264       1   48261   48249   48258   48270       1
   48258   48264   48255   48267       1   48255   48264   48258   48270       1
   48252   48240   48246   48255       1   48249   48258   48264   48273       1
   48246   48237   48249   48261       1   48246   48255   48264   48273       1
   48243   48231   48240   48246       1   48243   48231   48240   48252       1
   48240   48246   48255   48267       1   48237   48246   48240   48252       1
   48237   48246   48255   48267       1   48237   48249   48258   48270       1
   48234   48216   48228   48237       1   48228   48213   48231   48243       1
   48228   48237   48249   48261       1   48219   48195   48216   48228       1
   48219   48195   48216   48234       1   48213   48192   48207   48225       1
   48213   48228   48216   48234       1   48213   48231   48240   48252       1
   48210   48189   48207   48225       1   48204   48186   48198   48222       1
   48201   48180   48198   48222       1   48192   48177   48195   48219       1
   48192   48207   48189   48210       1   48192   48213   48231   48243       1
   48189   48174   48186   48204       1   48186   48174   48189   48210       1
   48186   48198   48180   48201       1   48183   48171   48180   48198       1
   48183   48171   48180   48201       1   48180   48198   48186   48204       1
   48177   48168   48171   48183       1   48177   48192   48207   48225       1
   48177   48195   48216   48234       1   48174   48168   48171   48183       1
   48174   48186   48198   48222       1   48174   48189   48207   48225       1
   48171   48180   48198   48222       1   48168   48171   48180   48201       1
   48168   48174   48186   48204       1   48168   48174   48189   48210       1
   48168   48177   48195   48219       1   48378   48366   48372   48381       1
   48375   48363   48372   48381       1   48369   48357   48366   48372       1
   48369   48357   48366   48378       1   48366   48372   48363   48375       1
   48363   48372   48366   48378       1   48360   48348   48354   48363       1
   48357   48366   48372   48381       1   48354   48345   48357   48369       1
   48354   48363   48372   48381       1   48351   48339   48348   48354       1
   48351   48339   48348   48360       1   48348   48354   48363   48375       1
   48345   48354   48348   48360       1   48345   48354   48363   48375       1
   48345   48357   48366   48378       1   48342   48324   48336   48345       1
   48336   48321   48339   48351       1   48336   48345   48357   48369       1
   48327   48303   48324   48336       1   48327   48303   48324   48342       1
   48321   48300   48315   48333       1   48321   48336   48324   48342       1
   48321   48339   48348   48360       1   48318   48297   48315   48333       1
   48312   48294   48306   48330       1   48309   48288   48306   48330       1
   48300   48285   48303   48327       1   48300   48315   48297   48318       1
   48300   48321   48339   48351       1   48297   48282   48294   48312       1
   48294   48282   48297   48318       1   48294   48306   48288   48309       1
   48291   48279   48288   48306       1   48291   48279   48288   48309       1
   48288   48306   48294   48312       1   48285   48276   48279   48291       1
   48285   48300   48315   48333       1   48285   48303   48324   48342       1
   48282   48276   48279   48291       1   48282   48294   48306   48330       1
   48282   48297   48315   48333       1   48279   48288   48306   48330       1
   48276   48279   48288   48309       1   48276   48282   48294   48312       1
   48276   48282   48297   48318       1   48276   48285   48303   48327       1
   48486   48474   48480   48489       1   48483   48471   48480   48489       1
   48477   48465   48474   48480       1   48477   48465   48474   48486       1
   48474   48480   48471   48483       1   48471   48480   48474   48486       1
   48468   48456   48462   48471       1   48465   48474   48480   48489       1
   48462   48453   48465   48477       1   48462   48471   48480   48489       1
   48459   48447   48456   48462       1   48459   48447   48456   48468       1
   48456   48462   48471   48483       1   48453   48462   48456   48468       1
   48453   48462   48471   48483       1   48453   48465   48474   48486       1
   48450   48432   48444   48453       1   48444   48429   48447   48459       1
   48444   48453   48465   48477       1   48435   48411   48432   48444       1
   48435   48411   48432   48450       1   48429   48408   48423   48441       1
   48429   48444   48432   48450       1   48429   48447   48456   48468       1
   48426   48405   48423   48441       1   48420   48402   48414   48438       1
   48417   48396   48414   48438       1   48408   48393   48411   48435       1
   48408   48423   48405   48426       1   48408   48429   48447   48459       1
   48405   48390   48402   48420       1   48402   48390   48405   48426       1
   48402   48414   48396   48417       1   48399   48387   48396   48414       1
   48399   48387   48396   48417       1   48396   48414   48402   48420       1
   48393   48384   48387   48399       1   48393   48408   48423   48441       1
   48393   48411   48432   48450       1   48390   48384   48387   48399       1
   48390   48402   48414   48438       1   48390   48405   48423   48441       1
   48387   48396   48414   48438       1   48384   48387   48396   48417       1
   48384   48390   48402   48420       1   48384   48390   48405   48426       1
   48384   48393   48411   48435       1   48594   48582   48588   48597       1
   48591   48579   48588   48597       1   48585   48573   48582   48588       1
   48585   48573   48582   48594       1   48582   48588   48579   48591       1
   48579   48588   48582   48594       1   48576   48564   48570   48579       1
   48573   48582   48588   48597       1   48570   48561   48573   48585       1
   48570   48579   48588   48597       1   48567   48555   48564   48570       1
   48567   48555   48564   48576       1   48564   48570   48579   48591       1
   48561   48570   48564   48576       1   48561   48570   48579   48591       1
   48561   48573   48582   48594       1   48558   48540   48552   48561       1
   48552   48537   48555   48567       1   48552   48561   48573   48585       1
   48543   48519   48540   48552       1   48543   48519   48540   48558       1
   48537   48516   48531   48549       1   48537   48552   48540   48558       1
   48537   48555   48564   48576       1   48534   48513   48531   48549       1
   48528   48510   48522   48546       1   48525   48504   48522   48546       1
   48516   48501   48519   48543       1   48516   48531   48513   48534       1
   48516   48537   48555   48567       1   48513   48498   48510   48528       1
   48510   48498   48513   48534       1   48510   48522   48504   48525       1
   48507   48495   48504   48522       1   48507   48495   48504   48525       1
   48504   48522   48510   48528       1   48501   48492   48495   48507       1
   48501   48516   48531   48549       1   48501   48519   48540   48558       1
   48498   48492   48495   48507       1   48498   48510   48522   48546       1
   48498   48513   48531   48549       1   48495   48504   48522   48546       1
   48492   48495   48504   48525       1   48492   48498   48510   48528       1
   48492   48498   48513   48534       1   48492   48501   48519   48543       1
   48702   48690   48696   48705       1   48699   48687   48696   48705       1
   48693   48681   48690   48696       1   48693   48681   48690   48702       1
   48690   48696   48687   48699       1   48687   48696   48690   48702       1
   48684   48672   48678   48687       1   48681   48690   48696   48705       1
   48678   48669   48681   48693       1   48678   48687   48696   48705       1
   48675   48663   48672   48678       1   48675   48663   48672   48684       1
   48672   48678   48687   48699       1   48669   48678   48672   48684       1
   48669   48678   48687   48699       1   48669   48681   48690   48702       1
   48666   48648   48660   48669       1   48660   48645   48663   48675       1
   48660   48669   48681   48693       1   48651   48627   48648   48660       1
   48651   48627   48648   48666       1   48645   48624   48639   48657       1
   48645   48660   48648   48666       1   48645   48663   48672   48684       1
   48642   48621   48639   48657       1   48636   48618   48630   48654       1
   48633   48612   48630   48654       1   48624   48609   48627   48651       1
   48624   48639   48621   48642       1   48624   48645   48663   48675       1
   48621   48606   48618   48636       1   48618   48606   48621   48642       1
   48618   48630   48612   48633       1   48615   48603   48612   48630       1
   48615   48603   48612   48633       1   48612   48630   48618   48636       1
   48609   48600   48603   48615       1   48609   48624   48639   48657       1
   48609   48627   48648   48666       1   48606   48600   48603   48615       1
   48606   48618   48630   48654       1   48606   48621   48639   48657       1
   48603   48612   48630   48654       1   48600   48603   48612   48633       1
   48600   48606   48618   48636       1   48600   48606   48621   48642       1
   48600   48609   48627   48651       1   48810   48798   48804   48813       1
   48807   48795   48804   48813       1   48801   48789   48798   48804       1
   48801   48789   48798   48810       1   48798   48804   48795   48807       1
   48795   48804   48798   48810       1   48792   48780   48786   48795       1
   48789   48798   48804   48813       1   48786   48777   48789   48801       1
   48786   48795   48804   48813       1   48783   48771   48780   48786       1
   48783   48771   48780   48792       1   48780   48786   48795   48807       1
   48777   48786   48780   48792       1   48777   48786   48795   48807       1
   48777   48789   48798   48810       1   48774   48756   48768   48777       1
   48768   48753   48771   48783       1   48768   48777   48789   48801       1
   48759   48735   48756   48768       1   48759   48735   48756   48774       1
   48753   48732   48747   48765       1   48753   48768   48756   48774       1
   48753   48771   48780   48792       1   48750   48729   48747   48765       1
   48744   48726   48738   48762       1   48741   48720   48738   48762       1
   48732   48717   48735   48759       1   48732   48747   48729   48750       1
   48732   48753   48771   48783       1   48729   48714   48726   48744       1
   48726   48714   48729   48750       1   48726   48738   48720   48741       1
   48723   48711   48720   48738       1   48723   48711   48720   48741       1
   48720   48738   48726   48744       1   48717   48708   48711   48723       1
   48717   48732   48747   48765       1   48717   48735   48756   48774       1
   48714   48708   48711   48723       1   48714   48726   48738   48762       1
   48714   48729   48747   48765       1   48711   48720   48738   48762       1
   48708   48711   48720   48741       1   48708   48714   48726   48744       1
   48708   48714   48729   48750       1   48708   48717   48735   48759       1
   48918   48906   48912   48921       1   48915   48903   48912   48921       1
   48909   48897   48906   48912       1   48909   48897   48906   48918       1
   48906   48912   48903   48915       1   48903   48912   48906   48918       1
   48900   48888   48894   48903       1   48897   48906   48912   48921       1
   48894   48885   48897   48909       1   48894   48903   48912   48921       1
   48891   48879   48888   48894       1   48891   48879   48888   48900       1
   48888   48894   48903   48915       1   48885   48894   48888   48900       1
   48885   48894   48903   48915       1   48885   48897   48906   48918       1
   48882   48864   48876   48885       1   48876   48861   48879   48891       1
   48876   48885   48897   48909       1   48867   48843   48864   48876       1
   48867   48843   48864   48882       1   48861   48840   48855   48873       1
   48861   48876   48864   48882       1   48861   48879   48888   48900       1
   48858   48837   48855   48873       1   48852   48834   48846   48870       1
   48849   48828   48846   48870       1   48840   48825   48843   48867       1
   48840   48855   48837   48858       1   48840   48861   48879   48891       1
   48837   48822   48834   48852       1   48834   48822   48837   48858       1
   48834   48846   48828   48849       1   48831   48819   48828   48846       1
   48831   48819   48828   48849       1   48828   48846   48834   48852       1
   48825   48816   48819   48831       1   48825   48840   48855   48873       1
   48825   48843   48864   48882       1   48822   48816   48819   48831       1
   48822   48834   48846   48870       1   48822   48837   48855   48873       1
   48819   48828   48846   48870       1   48816   48819   48828   48849       1
   48816   48822   48834   48852       1   48816   48822   48837   48858       1
   48816   48825   48843   48867       1   49026   49014   49020   49029       1
   49023   49011   49020   49029       1   49017   49005   49014   49020       1
   49017   49005   49014   49026       1   49014   49020   49011   49023       1
   49011   49020   49014   49026       1   49008   48996   49002   49011       1
   49005   49014   49020   49029       1   49002   48993   49005   49017       1
   49002   49011   49020   49029       1   48999   48987   48996   49002       1
   48999   48987   48996   49008       1   48996   49002   49011   49023       1
   48993   49002   48996   49008       1   48993   49002   49011   49023       1
   48993   49005   49014   49026       1   48990   48972   48984   48993       1
   48984   48969   48987   48999       1   48984   48993   49005   49017       1
   48975   48951   48972   48984       1   48975   48951   48972   48990       1
   48969   48948   48963   48981       1   48969   48984   48972   48990       1
   48969   48987   48996   49008       1   48966   48945   48963   48981       1
   48960   48942   48954   48978       1   48957   48936   48954   48978       1
   48948   48933   48951   48975       1   48948   48963   48945   48966       1
   48948   48969   48987   48999       1   48945   48930   48942   48960       1
   48942   48930   48945   48966       1   48942   48954   48936   48957       1
   48939   48927   48936   48954       1   48939   48927   48936   48957       1
   48936   48954   48942   48960       1   48933   48924   48927   48939       1
   48933   48948   48963   48981       1   48933   48951   48972   48990       1
   48930   48924   48927   48939       1   48930   48942   48954   48978       1
   48930   48945   48963   48981       1   48927   48936   48954   48978       1
   48924   48927   48936   48957       1   48924   48930   48942   48960       1
   48924   48930   48945   48966       1   48924   48933   48951   48975       1
   49134   49122   49128   49137       1   49131   49119   49128   49137       1
   49125   49113   49122   49128       1   49125   49113   49122   49134       1
   49122   49128   49119   49131       1   49119   49128   49122   49134       1
   49116   49104   49110   49119       1   49113   49122   49128   49137       1
   49110   49101   49113   49125       1   49110   49119   49128   49137       1
   49107   49095   49104   49110       1   49107   49095   49104   49116       1
   49104   49110   49119   49131       1   49101   49110   49104   49116       1
   49101   49110   49119   49131       1   49101   49113   49122   49134       1
   49098   49080   49092   49101       1   49092   49077   49095   49107       1
   49092   49101   49113   49125       1   49083   49059   49080   49092       1
   49083   49059   49080   49098       1   49077   49056   49071   49089       1
   49077   49092   49080   49098       1   49077   49095   49104   49116       1
   49074   49053   49071   49089       1   49068   49050   49062   49086       1
   49065   49044   49062   49086       1   49056   49041   49059   49083       1
   49056   49071   49053   49074       1   49056   49077   49095   49107       1
   49053   49038   49050   49068       1   49050   49038   49053   49074       1
   49050   49062   49044   49065       1   49047   49035   49044   49062       1
   49047   49035   49044   49065       1   49044   49062   49050   49068       1
   49041   49032   49035   49047       1   49041   49056   49071   49089       1
   49041   49059   49080   49098       1   49038   49032   49035   49047       1
   49038   49050   49062   49086       1   49038   49053   49071   49089       1
   49035   49044   49062   49086       1   49032   49035   49044   49065       1
   49032   49038   49050   49068       1   49032   49038   49053   49074       1
   49032   49041   49059   49083       1   49242   49230   49236   49245       1
   49239   49227   49236   49245       1   49233   49221   49230   49236       1
   49233   49221   49230   49242       1   49230   49236   49227   49239       1
   49227   49236   49230   49242       1   49224   49212   49218   49227       1
   49221   49230   49236   49245       1   49218   49209   49221   49233       1
   49218   49227   49236   49245       1   49215   49203   49212   49218       1
   49215   49203   49212   49224       1   49212   49218   49227   49239       1
   49209   49218   49212   49224       1   49209   49218   49227   49239       1
   49209   49221   49230   49242       1   49206   49188   49200   49209       1
   49200   49185   49203   49215       1   49200   49209   49221   49233       1
   49191   49167   49188   49200       1   49191   49167   49188   49206       1
   49185   49164   49179   49197       1   49185   49200   49188   49206       1
   49185   49203   49212   49224       1   49182   49161   49179   49197       1
   49176   49158   49170   49194       1   49173   49152   49170   49194       1
   49164   49149   49167   49191       1   49164   49179   49161   49182       1
   49164   49185   49203   49215       1   49161   49146   49158   49176       1
   49158   49146   49161   49182       1   49158   49170   49152   49173       1
   49155   49143   49152   49170       1   49155   49143   49152   49173       1
   49152   49170   49158   49176       1   49149   49140   49143   49155       1
   49149   49164   49179   49197       1   49149   49167   49188   49206       1
   49146   49140   49143   49155       1   49146   49158   49170   49194       1
   49146   49161   49179   49197       1   49143   49152   49170   49194       1
   49140   49143   49152   49173       1   49140   49146   49158   49176       1
   49140   49146   49161   49182       1   49140   49149   49167   49191       1
   49350   49338   49344   49353       1   49347   49335   49344   49353       1
   49341   49329   49338   49344       1   49341   49329   49338   49350       1
   49338   49344   49335   49347       1   49335   49344   49338   49350       1
   49332   49320   49326   49335       1   49329   49338   49344   49353       1
   49326   49317   49329   49341       1   49326   49335   49344   49353       1
   49323   49311   49320   49326       1   49323   49311   49320   49332       1
   49320   49326   49335   49347       1   49317   49326   49320   49332       1
   49317   49326   49335   49347       1   49317   49329   49338   49350       1
   49314   49296   49308   49317       1   49308   49293   49311   49323       1
   49308   49317   49329   49341       1   49299   49275   49296   49308       1
   49299   49275   49296   49314       1   49293   49272   49287   49305       1
   49293   49308   49296   49314       1   49293   49311   49320   49332       1
   49290   49269   49287   49305       1   49284   49266   49278   49302       1
   49281   49260   49278   49302       1   49272   49257   49275   49299       1
   49272   49287   49269   49290       1   49272   49293   49311   49323       1
   49269   49254   49266   49284       1   49266   49254   49269   49290       1
   49266   49278   49260   49281       1   49263   49251   49260   49278       1
   49263   49251   49260   49281       1   49260   49278   49266   49284       1
   49257   49248   49251   49263       1   49257   49272   49287   49305       1
   49257   49275   49296   49314       1   49254   49248   49251   49263       1
   49254   49266   49278   49302       1   49254   49269   49287   49305       1
   49251   49260   49278   49302       1   49248   49251   49260   49281       1
   49248   49254   49266   49284       1   49248   49254   49269   49290       1
   49248   49257   49275   49299       1   49458   49446   49452   49461       1
   49455   49443   49452   49461       1   49449   49437   49446   49452       1
   49449   49437   49446   49458       1   49446   49452   49443   49455       1
   49443   49452   49446   49458       1   49440   49428   49434   49443       1
   49437   49446   49452   49461       1   49434   49425   49437   49449       1
   49434   49443   49452   49461       1   49431   49419   49428   49434       1
   49431   49419   49428   49440       1   49428   49434   49443   49455       1
   49425   49434   49428   49440       1   49425   49434   49443   49455       1
   49425   49437   49446   49458       1   49422   49404   49416   49425       1
   49416   49401   49419   49431       1   49416   49425   49437   49449       1
   49407   49383   49404   49416       1   49407   49383   49404   49422       1
   49401   49380   49395   49413       1   49401   49416   49404   49422       1
   49401   49419   49428   49440       1   49398   49377   49395   49413       1
   49392   49374   49386   49410       1   49389   49368   49386   49410       1
   49380   49365   49383   49407       1   49380   49395   49377   49398       1
   49380   49401   49419   49431       1   49377   49362   49374   49392       1
   49374   49362   49377   49398       1   49374   49386   49368   49389       1
   49371   49359   49368   49386       1   49371   49359   49368   49389       1
   49368   49386   49374   49392       1   49365   49356   49359   49371       1
   49365   49380   49395   49413       1   49365   49383   49404   49422       1
   49362   49356   49359   49371       1   49362   49374   49386   49410       1
   49362   49377   49395   49413       1   49359   49368   49386   49410       1
   49356   49359   49368   49389       1   49356   49362   49374   49392       1
   49356   49362   49377   49398       1   49356   49365   49383   49407       1
   49566   49554   49560   49569       1   49563   49551   49560   49569       1
   49557   49545   49554   49560       1   49557   49545   49554   49566       1
   49554   49560   49551   49563       1   49551   49560   49554   49566       1
   49548   49536   49542   49551       1   49545   49554   49560   49569       1
   49542   49533   49545   49557       1   49542   49551   49560   49569       1
   49539   49527   49536   49542       1   49539   49527   49536   49548       1
   49536   49542   49551   49563       1   49533   49542   49536   49548       1
   49533   49542   49551   49563       1   49533   49545   49554   49566       1
   49530   49512   49524   49533       1   49524   49509   49527   49539       1
   49524   49533   49545   49557       1   49515   49491   49512   49524       1
   49515   49491   49512   49530       1   49509   49488   49503   49521       1
   49509   49524   49512   49530       1   49509   49527   49536   49548       1
   49506   49485   49503   49521       1   49500   49482   49494   49518       1
   49497   49476   49494   49518       1   49488   49473   49491   49515       1
   49488   49503   49485   49506       1   49488   49509   49527   49539       1
   49485   49470   49482   49500       1   49482   49470   49485   49506       1
   49482   49494   49476   49497       1   49479   49467   49476   49494       1
   49479   49467   49476   49497       1   49476   49494   49482   49500       1
   49473   49464   49467   49479       1   49473   49488   49503   49521       1
   49473   49491   49512   49530       1   49470   49464   49467   49479       1
   49470   49482   49494   49518       1   49470   49485   49503   49521       1
   49467   49476   49494   49518       1   49464   49467   49476   49497       1
   49464   49470   49482   49500       1   49464   49470   49485   49506       1
   49464   49473   49491   49515       1   49674   49662   49668   49677       1
   49671   49659   49668   49677       1   49665   49653   49662   49668       1
   49665   49653   49662   49674       1   49662   49668   49659   49671       1
   49659   49668   49662   49674       1   49656   49644   49650   49659       1
   49653   49662   49668   49677       1   49650   49641   49653   49665       1
   49650   49659   49668   49677       1   49647   49635   49644   49650       1
   49647   49635   49644   49656       1   49644   49650   49659   49671       1
   49641   49650   49644   49656       1   49641   49650   49659   49671       1
   49641   49653   49662   49674       1   49638   49620   49632   49641       1
   49632   49617   49635   49647       1   49632   49641   49653   49665       1
   49623   49599   49620   49632       1   49623   49599   49620   49638       1
   49617   49596   49611   49629       1   49617   49632   49620   49638       1
   49617   49635   49644   49656       1   49614   49593   49611   49629       1
   49608   49590   49602   49626       1   49605   49584   49602   49626       1
   49596   49581   49599   49623       1   49596   49611   49593   49614       1
   49596   49617   49635   49647       1   49593   49578   49590   49608       1
   49590   49578   49593   49614       1   49590   49602   49584   49605       1
   49587   49575   49584   49602       1   49587   49575   49584   49605       1
   49584   49602   49590   49608       1   49581   49572   49575   49587       1
   49581   49596   49611   49629       1   49581   49599   49620   49638       1
   49578   49572   49575   49587       1   49578   49590   49602   49626       1
   49578   49593   49611   49629       1   49575   49584   49602   49626       1
   49572   49575   49584   49605       1   49572   49578   49590   49608       1
   49572   49578   49593   49614       1   49572   49581   49599   49623       1
   49782   49770   49776   49785       1   49779   49767   49776   49785       1
   49773   49761   49770   49776       1   49773   49761   49770   49782       1
   49770   49776   49767   49779       1   49767   49776   49770   49782       1
   49764   49752   49758   49767       1   49761   49770   49776   49785       1
   49758   49749   49761   49773       1   49758   49767   49776   49785       1
   49755   49743   49752   49758       1   49755   49743   49752   49764       1
   49752   49758   49767   49779       1   49749   49758   49752   49764       1
   49749   49758   49767   49779       1   49749   49761   49770   49782       1
   49746   49728   49740   49749       1   49740   49725   49743   49755       1
   49740   49749   49761   49773       1   49731   49707   49728   49740       1
   49731   49707   49728   49746       1   49725   49704   49719   49737       1
   49725   49740   49728   49746       1   49725   49743   49752   49764       1
   49722   49701   49719   49737       1   49716   49698   49710   49734       1
   49713   49692   49710   49734       1   49704   49689   49707   49731       1
   49704   49719   49701   49722       1   49704   49725   49743   49755       1
   49701   49686   49698   49716       1   49698   49686   49701   49722       1
   49698   49710   49692   49713       1   49695   49683   49692   49710       1
   49695   49683   49692   49713       1   49692   49710   49698   49716       1
   49689   49680   49683   49695       1   49689   49704   49719   49737       1
   49689   49707   49728   49746       1   49686   49680   49683   49695       1
   49686   49698   49710   49734       1   49686   49701   49719   49737       1
   49683   49692   49710   49734       1   49680   49683   49692   49713       1
   49680   49686   49698   49716       1   49680   49686   49701   49722       1
   49680   49689   49707   49731       1   49890   49878   49884   49893       1
   49887   49875   49884   49893       1   49881   49869   49878   49884       1
   49881   49869   49878   49890       1   49878   49884   49875   49887       1
   49875   49884   49878   49890       1   49872   49860   49866   49875       1
   49869   49878   49884   49893       1   49866   49857   49869   49881       1
   49866   49875   49884   49893       1   49863   49851   49860   49866       1
   49863   49851   49860   49872       1   49860   49866   49875   49887       1
   49857   49866   49860   49872       1   49857   49866   49875   49887       1
   49857   49869   49878   49890       1   49854   49836   49848   49857       1
   49848   49833   49851   49863       1   49848   49857   49869   49881       1
   49839   49815   49836   49848       1   49839   49815   49836   49854       1
   49833   49812   49827   49845       1   49833   49848   49836   49854       1
   49833   49851   49860   49872       1   49830   49809   49827   49845       1
   49824   49806   49818   49842       1   49821   49800   49818   49842       1
   49812   49797   49815   49839       1   49812   49827   49809   49830       1
   49812   49833   49851   49863       1   49809   49794   49806   49824       1
   49806   49794   49809   49830       1   49806   49818   49800   49821       1
   49803   49791   49800   49818       1   49803   49791   49800   49821       1
   49800   49818   49806   49824       1   49797   49788   49791   49803       1
   49797   49812   49827   49845       1   49797   49815   49836   49854       1
   49794   49788   49791   49803       1   49794   49806   49818   49842       1
   49794   49809   49827   49845       1   49791   49800   49818   49842       1
   49788   49791   49800   49821       1   49788   49794   49806   49824       1
   49788   49794   49809   49830       1   49788   49797   49815   49839       1
   49998   49986   49992   50001       1   49995   49983   49992   50001       1
   49989   49977   49986   49992       1   49989   49977   49986   49998       1
   49986   49992   49983   49995       1   49983   49992   49986   49998       1
   49980   49968   49974   49983       1   49977   49986   49992   50001       1
   49974   49965   49977   49989       1   49974   49983   49992   50001       1
   49971   49959   49968   49974       1   49971   49959   49968   49980       1
   49968   49974   49983   49995       1   49965   49974   49968   49980       1
   49965   49974   49983   49995       1   49965   49977   49986   49998       1
   49962   49944   49956   49965       1   49956   49941   49959   49971       1
   49956   49965   49977   49989       1   49947   49923   49944   49956       1
   49947   49923   49944   49962       1   49941   49920   49935   49953       1
   49941   49956   49944   49962       1   49941   49959   49968   49980       1
   49938   49917   49935   49953       1   49932   49914   49926   49950       1
   49929   49908   49926   49950       1   49920   49905   49923   49947       1
   49920   49935   49917   49938       1   49920   49941   49959   49971       1
   49917   49902   49914   49932       1   49914   49902   49917   49938       1
   49914   49926   49908   49929       1   49911   49899   49908   49926       1
   49911   49899   49908   49929       1   49908   49926   49914   49932       1
   49905   49896   49899   49911       1   49905   49920   49935   49953       1
   49905   49923   49944   49962       1   49902   49896   49899   49911       1
   49902   49914   49926   49950       1   49902   49917   49935   49953       1
   49899   49908   49926   49950       1   49896   49899   49908   49929       1
   49896   49902   49914   49932       1   49896   49902   49917   49938       1
   49896   49905   49923   49947       1   50106   50094   50100   50109       1
   50103   50091   50100   50109       1   50097   50085   50094   50100       1
   50097   50085   50094   50106       1   50094   50100   50091   50103       1
   50091   50100   50094   50106       1   50088   50076   50082   50091       1
   50085   50094   50100   50109       1   50082   50073   50085   50097       1
   50082   50091   50100   50109       1   50079   50067   50076   50082       1
   50079   50067   50076   50088       1   50076   50082   50091   50103       1
   50073   50082   50076   50088       1   50073   50082   50091   50103       1
   50073   50085   50094   50106       1   50070   50052   50064   50073       1
   50064   50049   50067   50079       1   50064   50073   50085   50097       1
   50055   50031   50052   50064       1   50055   50031   50052   50070       1
   50049   50028   50043   50061       1   50049   50064   50052   50070       1
   50049   50067   50076   50088       1   50046   50025   50043   50061       1
   50040   50022   50034   50058       1   50037   50016   50034   50058       1
   50028   50013   50031   50055       1   50028   50043   50025   50046       1
   50028   50049   50067   50079       1   50025   50010   50022   50040       1
   50022   50010   50025   50046       1   50022   50034   50016   50037       1
   50019   50007   50016   50034       1   50019   50007   50016   50037       1
   50016   50034   50022   50040       1   50013   50004   50007   50019       1
   50013   50028   50043   50061       1   50013   50031   50052   50070       1
   50010   50004   50007   50019       1   50010   50022   50034   50058       1
   50010   50025   50043   50061       1   50007   50016   50034   50058       1
   50004   50007   50016   50037       1   50004   50010   50022   50040       1
   50004   50010   50025   50046       1   50004   50013   50031   50055       1
   50214   50202   50208   50217       1   50211   50199   50208   50217       1
   50205   50193   50202   50208       1   50205   50193   50202   50214       1
   50202   50208   50199   50211       1   50199   50208   50202   50214       1
   50196   50184   50190   50199       1   50193   50202   50208   50217       1
   50190   50181   50193   50205       1   50190   50199   50208   50217       1
   50187   50175   50184   50190       1   50187   50175   50184   50196       1
   50184   50190   50199   50211       1   50181   50190   50184   50196       1
   50181   50190   50199   50211       1   50181   50193   50202   50214       1
   50178   50160   50172   50181       1   50172   50157   50175   50187       1
   50172   50181   50193   50205       1   50163   50139   50160   50172       1
   50163   50139   50160   50178       1   50157   50136   50151   50169       1
   50157   50172   50160   50178       1   50157   50175   50184   50196       1
   50154   50133   50151   50169       1   50148   50130   50142   50166       1
   50145   50124   50142   50166       1   50136   50121   50139   50163       1
   50136   50151   50133   50154       1   50136   50157   50175   50187       1
   50133   50118   50130   50148       1   50130   50118   50133   50154       1
   50130   50142   50124   50145       1   50127   50115   50124   50142       1
   50127   50115   50124   50145       1   50124   50142   50130   50148       1
   50121   50112   50115   50127       1   50121   50136   50151   50169       1
   50121   50139   50160   50178       1   50118   50112   50115   50127       1
   50118   50130   50142   50166       1   50118   50133   50151   50169       1
   50115   50124   50142   50166       1   50112   50115   50124   50145       1
   50112   50118   50130   50148       1   50112   50118   50133   50154       1
   50112   50121   50139   50163       1   50322   50310   50316   50325       1
   50319   50307   50316   50325       1   50313   50301   50310   50316       1
   50313   50301   50310   50322       1   50310   50316   50307   50319       1
   50307   50316   50310   50322       1   50304   50292   50298   50307       1
   50301   50310   50316   50325       1   50298   50289   50301   50313       1
   50298   50307   50316   50325       1   50295   50283   50292   50298       1
   50295   50283   50292   50304       1   50292   50298   50307   50319       1
   50289   50298   50292   50304       1   50289   50298   50307   50319       1
   50289   50301   50310   50322       1   50286   50268   50280   50289       1
   50280   50265   50283   50295       1   50280   50289   50301   50313       1
   50271   50247   50268   50280       1   50271   50247   50268   50286       1
   50265   50244   50259   50277       1   50265   50280   50268   50286       1
   50265   50283   50292   50304       1   50262   50241   50259   50277       1
   50256   50238   50250   50274       1   50253   50232   50250   50274       1
   50244   50229   50247   50271       1   50244   50259   50241   50262       1
   50244   50265   50283   50295       1   50241   50226   50238   50256       1
   50238   50226   50241   50262       1   50238   50250   50232   50253       1
   50235   50223   50232   50250       1   50235   50223   50232   50253       1
   50232   50250   50238   50256       1   50229   50220   50223   50235       1
   50229   50244   50259   50277       1   50229   50247   50268   50286       1
   50226   50220   50223   50235       1   50226   50238   50250   50274       1
   50226   50241   50259   50277       1   50223   50232   50250   50274       1
   50220   50223   50232   50253       1   50220   50226   50238   50256       1
   50220   50226   50241   50262       1   50220   50229   50247   50271       1
   50430   50418   50424   50433       1   50427   50415   50424   50433       1
   50421   50409   50418   50424       1   50421   50409   50418   50430       1
   50418   50424   50415   50427       1   50415   50424   50418   50430       1
   50412   50400   50406   50415       1   50409   50418   50424   50433       1
   50406   50397   50409   50421       1   50406   50415   50424   50433       1
   50403   50391   50400   50406       1   50403   50391   50400   50412       1
   50400   50406   50415   50427       1   50397   50406   50400   50412       1
   50397   50406   50415   50427       1   50397   50409   50418   50430       1
   50394   50376   50388   50397       1   50388   50373   50391   50403       1
   50388   50397   50409   50421       1   50379   50355   50376   50388       1
   50379   50355   50376   50394       1   50373   50352   50367   50385       1
   50373   50388   50376   50394       1   50373   50391   50400   50412       1
   50370   50349   50367   50385       1   50364   50346   50358   50382       1
   50361   50340   50358   50382       1   50352   50337   50355   50379       1
   50352   50367   50349   50370       1   50352   50373   50391   50403       1
   50349   50334   50346   50364       1   50346   50334   50349   50370       1
   50346   50358   50340   50361       1   50343   50331   50340   50358       1
   50343   50331   50340   50361       1   50340   50358   50346   50364       1
   50337   50328   50331   50343       1   50337   50352   50367   50385       1
   50337   50355   50376   50394       1   50334   50328   50331   50343       1
   50334   50346   50358   50382       1   50334   50349   50367   50385       1
   50331   50340   50358   50382       1   50328   50331   50340   50361       1
   50328   50334   50346   50364       1   50328   50334   50349   50370       1
   50328   50337   50355   50379       1   50538   50526   50532   50541       1
   50535   50523   50532   50541       1   50529   50517   50526   50532       1
   50529   50517   50526   50538       1   50526   50532   50523   50535       1
   50523   50532   50526   50538       1   50520   50508   50514   50523       1
   50517   50526   50532   50541       1   50514   50505   50517   50529       1
   50514   50523   50532   50541       1   50511   50499   50508   50514       1
   50511   50499   50508   50520       1   50508   50514   50523   50535       1
   50505   50514   50508   50520       1   50505   50514   50523   50535       1
   50505   50517   50526   50538       1   50502   50484   50496   50505       1
   50496   50481   50499   50511       1   50496   50505   50517   50529       1
   50487   50463   50484   50496       1   50487   50463   50484   50502       1
   50481   50460   50475   50493       1   50481   50496   50484   50502       1
   50481   50499   50508   50520       1   50478   50457   50475   50493       1
   50472   50454   50466   50490       1   50469   50448   50466   50490       1
   50460   50445   50463   50487       1   50460   50475   50457   50478       1
   50460   50481   50499   50511       1   50457   50442   50454   50472       1
   50454   50442   50457   50478       1   50454   50466   50448   50469       1
   50451   50439   50448   50466       1   50451   50439   50448   50469       1
   50448   50466   50454   50472       1   50445   50436   50439   50451       1
   50445   50460   50475   50493       1   50445   50463   50484   50502       1
   50442   50436   50439   50451       1   50442   50454   50466   50490       1
   50442   50457   50475   50493       1   50439   50448   50466   50490       1
   50436   50439   50448   50469       1   50436   50442   50454   50472       1
   50436   50442   50457   50478       1   50436   50445   50463   50487       1
   50646   50634   50640   50649       1   50643   50631   50640   50649       1
   50637   50625   50634   50640       1   50637   50625   50634   50646       1
   50634   50640   50631   50643       1   50631   50640   50634   50646       1
   50628   50616   50622   50631       1   50625   50634   50640   50649       1
   50622   50613   50625   50637       1   50622   50631   50640   50649       1
   50619   50607   50616   50622       1   50619   50607   50616   50628       1
   50616   50622   50631   50643       1   50613   50622   50616   50628       1
   50613   50622   50631   50643       1   50613   50625   50634   50646       1
   50610   50592   50604   50613       1   50604   50589   50607   50619       1
   50604   50613   50625   50637       1   50595   50571   50592   50604       1
   50595   50571   50592   50610       1   50589   50568   50583   50601       1
   50589   50604   50592   50610       1   50589   50607   50616   50628       1
   50586   50565   50583   50601       1   50580   50562   50574   50598       1
   50577   50556   50574   50598       1   50568   50553   50571   50595       1
   50568   50583   50565   50586       1   50568   50589   50607   50619       1
   50565   50550   50562   50580       1   50562   50550   50565   50586       1
   50562   50574   50556   50577       1   50559   50547   50556   50574       1
   50559   50547   50556   50577       1   50556   50574   50562   50580       1
   50553   50544   50547   50559       1   50553   50568   50583   50601       1
   50553   50571   50592   50610       1   50550   50544   50547   50559       1
   50550   50562   50574   50598       1   50550   50565   50583   50601       1
   50547   50556   50574   50598       1   50544   50547   50556   50577       1
   50544   50550   50562   50580       1   50544   50550   50565   50586       1
   50544   50553   50571   50595       1   50754   50742   50748   50757       1
   50751   50739   50748   50757       1   50745   50733   50742   50748       1
   50745   50733   50742   50754       1   50742   50748   50739   50751       1
   50739   50748   50742   50754       1   50736   50724   50730   50739       1
   50733   50742   50748   50757       1   50730   50721   50733   50745       1
   50730   50739   50748   50757       1   50727   50715   50724   50730       1
   50727   50715   50724   50736       1   50724   50730   50739   50751       1
   50721   50730   50724   50736       1   50721   50730   50739   50751       1
   50721   50733   50742   50754       1   50718   50700   50712   50721       1
   50712   50697   50715   50727       1   50712   50721   50733   50745       1
   50703   50679   50700   50712       1   50703   50679   50700   50718       1
   50697   50676   50691   50709       1   50697   50712   50700   50718       1
   50697   50715   50724   50736       1   50694   50673   50691   50709       1
   50688   50670   50682   50706       1   50685   50664   50682   50706       1
   50676   50661   50679   50703       1   50676   50691   50673   50694       1
   50676   50697   50715   50727       1   50673   50658   50670   50688       1
   50670   50658   50673   50694       1   50670   50682   50664   50685       1
   50667   50655   50664   50682       1   50667   50655   50664   50685       1
   50664   50682   50670   50688       1   50661   50652   50655   50667       1
   50661   50676   50691   50709       1   50661   50679   50700   50718       1
   50658   50652   50655   50667       1   50658   50670   50682   50706       1
   50658   50673   50691   50709       1   50655   50664   50682   50706       1
   50652   50655   50664   50685       1   50652   50658   50670   50688       1
   50652   50658   50673   50694       1   50652   50661   50679   50703       1
   50862   50850   50856   50865       1   50859   50847   50856   50865       1
   50853   50841   50850   50856       1   50853   50841   50850   50862       1
   50850   50856   50847   50859       1   50847   50856   50850   50862       1
   50844   50832   50838   50847       1   50841   50850   50856   50865       1
   50838   50829   50841   50853       1   50838   50847   50856   50865       1
   50835   50823   50832   50838       1   50835   50823   50832   50844       1
   50832   50838   50847   50859       1   50829   50838   50832   50844       1
   50829   50838   50847   50859       1   50829   50841   50850   50862       1
   50826   50808   50820   50829       1   50820   50805   50823   50835       1
   50820   50829   50841   50853       1   50811   50787   50808   50820       1
   50811   50787   50808   50826       1   50805   50784   50799   50817       1
   50805   50820   50808   50826       1   50805   50823   50832   50844       1
   50802   50781   50799   50817       1   50796   50778   50790   50814       1
   50793   50772   50790   50814       1   50784   50769   50787   50811       1
   50784   50799   50781   50802       1   50784   50805   50823   50835       1
   50781   50766   50778   50796       1   50778   50766   50781   50802       1
   50778   50790   50772   50793       1   50775   50763   50772   50790       1
   50775   50763   50772   50793       1   50772   50790   50778   50796       1
   50769   50760   50763   50775       1   50769   50784   50799   50817       1
   50769   50787   50808   50826       1   50766   50760   50763   50775       1
   50766   50778   50790   50814       1   50766   50781   50799   50817       1
   50763   50772   50790   50814       1   50760   50763   50772   50793       1
   50760   50766   50778   50796       1   50760   50766   50781   50802       1
   50760   50769   50787   50811       1   50970   50958   50964   50973       1
   50967   50955   50964   50973       1   50961   50949   50958   50964       1
   50961   50949   50958   50970       1   50958   50964   50955   50967       1
   50955   50964   50958   50970       1   50952   50940   50946   50955       1
   50949   50958   50964   50973       1   50946   50937   50949   50961       1
   50946   50955   50964   50973       1   50943   50931   50940   50946       1
   50943   50931   50940   50952       1   50940   50946   50955   50967       1
   50937   50946   50940   50952       1   50937   50946   50955   50967       1
   50937   50949   50958   50970       1   50934   50916   50928   50937       1
   50928   50913   50931   50943       1   50928   50937   50949   50961       1
   50919   50895   50916   50928       1   50919   50895   50916   50934       1
   50913   50892   50907   50925       1   50913   50928   50916   50934       1
   50913   50931   50940   50952       1   50910   50889   50907   50925       1
   50904   50886   50898   50922       1   50901   50880   50898   50922       1
   50892   50877   50895   50919       1   50892   50907   50889   50910       1
   50892   50913   50931   50943       1   50889   50874   50886   50904       1
   50886   50874   50889   50910       1   50886   50898   50880   50901       1
   50883   50871   50880   50898       1   50883   50871   50880   50901       1
   50880   50898   50886   50904       1   50877   50868   50871   50883       1
   50877   50892   50907   50925       1   50877   50895   50916   50934       1
   50874   50868   50871   50883       1   50874   50886   50898   50922       1
   50874   50889   50907   50925       1   50871   50880   50898   50922       1
   50868   50871   50880   50901       1   50868   50874   50886   50904       1
   50868   50874   50889   50910       1   50868   50877   50895   50919       1
   51078   51066   51072   51081       1   51075   51063   51072   51081       1
   51069   51057   51066   51072       1   51069   51057   51066   51078       1
   51066   51072   51063   51075       1   51063   51072   51066   51078       1
   51060   51048   51054   51063       1   51057   51066   51072   51081       1
   51054   51045   51057   51069       1   51054   51063   51072   51081       1
   51051   51039   51048   51054       1   51051   51039   51048   51060       1
   51048   51054   51063   51075       1   51045   51054   51048   51060       1
   51045   51054   51063   51075       1   51045   51057   51066   51078       1
   51042   51024   51036   51045       1   51036   51021   51039   51051       1
   51036   51045   51057   51069       1   51027   51003   51024   51036       1
   51027   51003   51024   51042       1   51021   51000   51015   51033       1
   51021   51036   51024   51042       1   51021   51039   51048   51060       1
   51018   50997   51015   51033       1   51012   50994   51006   51030       1
   51009   50988   51006   51030       1   51000   50985   51003   51027       1
   51000   51015   50997   51018       1   51000   51021   51039   51051       1
   50997   50982   50994   51012       1   50994   50982   50997   51018       1
   50994   51006   50988   51009       1   50991   50979   50988   51006       1
   50991   50979   50988   51009       1   50988   51006   50994   51012       1
   50985   50976   50979   50991       1   50985   51000   51015   51033       1
   50985   51003   51024   51042       1   50982   50976   50979   50991       1
   50982   50994   51006   51030       1   50982   50997   51015   51033       1
   50979   50988   51006   51030       1   50976   50979   50988   51009       1
   50976   50982   50994   51012       1   50976   50982   50997   51018       1
   50976   50985   51003   51027       1   51186   51174   51180   51189       1
   51183   51171   51180   51189       1   51177   51165   51174   51180       1
   51177   51165   51174   51186       1   51174   51180   51171   51183       1
   51171   51180   51174   51186       1   51168   51156   51162   51171       1
   51165   51174   51180   51189       1   51162   51153   51165   51177       1
   51162   51171   51180   51189       1   51159   51147   51156   51162       1
   51159   51147   51156   51168       1   51156   51162   51171   51183       1
   51153   51162   51156   51168       1   51153   51162   51171   51183       1
   51153   51165   51174   51186       1   51150   51132   51144   51153       1
   51144   51129   51147   51159       1   51144   51153   51165   51177       1
   51135   51111   51132   51144       1   51135   51111   51132   51150       1
   51129   51108   51123   51141       1   51129   51144   51132   51150       1
   51129   51147   51156   51168       1   51126   51105   51123   51141       1
   51120   51102   51114   51138       1   51117   51096   51114   51138       1
   51108   51093   51111   51135       1   51108   51123   51105   51126       1
   51108   51129   51147   51159       1   51105   51090   51102   51120       1
   51102   51090   51105   51126       1   51102   51114   51096   51117       1
   51099   51087   51096   51114       1   51099   51087   51096   51117       1
   51096   51114   51102   51120       1   51093   51084   51087   51099       1
   51093   51108   51123   51141       1   51093   51111   51132   51150       1
   51090   51084   51087   51099       1   51090   51102   51114   51138       1
   51090   51105   51123   51141       1   51087   51096   51114   51138       1
   51084   51087   51096   51117       1   51084   51090   51102   51120       1
   51084   51090   51105   51126       1   51084   51093   51111   51135       1
   51294   51282   51288   51297       1   51291   51279   51288   51297       1
   51285   51273   51282   51288       1   51285   51273   51282   51294       1
   51282   51288   51279   51291       1   51279   51288   51282   51294       1
   51276   51264   51270   51279       1   51273   51282   51288   51297       1
   51270   51261   51273   51285       1   51270   51279   51288   51297       1
   51267   51255   51264   51270       1   51267   51255   51264   51276       1
   51264   51270   51279   51291       1   51261   51270   51264   51276       1
   51261   51270   51279   51291       1   51261   51273   51282   51294       1
   51258   51240   51252   51261       1   51252   51237   51255   51267       1
   51252   51261   51273   51285       1   51243   51219   51240   51252       1
   51243   51219   51240   51258       1   51237   51216   51231   51249       1
   51237   51252   51240   51258       1   51237   51255   51264   51276       1
   51234   51213   51231   51249       1   51228   51210   51222   51246       1
   51225   51204   51222   51246       1   51216   51201   51219   51243       1
   51216   51231   51213   51234       1   51216   51237   51255   51267       1
   51213   51198   51210   51228       1   51210   51198   51213   51234       1
   51210   51222   51204   51225       1   51207   51195   51204   51222       1
   51207   51195   51204   51225       1   51204   51222   51210   51228       1
   51201   51192   51195   51207       1   51201   51216   51231   51249       1
   51201   51219   51240   51258       1   51198   51192   51195   51207       1
   51198   51210   51222   51246       1   51198   51213   51231   51249       1
   51195   51204   51222   51246       1   51192   51195   51204   51225       1
   51192   51198   51210   51228       1   51192   51198   51213   51234       1
   51192   51201   51219   51243       1   51402   51390   51396   51405       1
   51399   51387   51396   51405       1   51393   51381   51390   51396       1
   51393   51381   51390   51402       1   51390   51396   51387   51399       1
   51387   51396   51390   51402       1   51384   51372   51378   51387       1
   51381   51390   51396   51405       1   51378   51369   51381   51393       1
   51378   51387   51396   51405       1   51375   51363   51372   51378       1
   51375   51363   51372   51384       1   51372   51378   51387   51399       1
   51369   51378   51372   51384       1   51369   51378   51387   51399       1
   51369   51381   51390   51402       1   51366   51348   51360   51369       1
   51360   51345   51363   51375       1   51360   51369   51381   51393       1
   51351   51327   51348   51360       1   51351   51327   51348   51366       1
   51345   51324   51339   51357       1   51345   51360   51348   51366       1
   51345   51363   51372   51384       1   51342   51321   51339   51357       1
   51336   51318   51330   51354       1   51333   51312   51330   51354       1
   51324   51309   51327   51351       1   51324   51339   51321   51342       1
   51324   51345   51363   51375       1   51321   51306   51318   51336       1
   51318   51306   51321   51342       1   51318   51330   51312   51333       1
   51315   51303   51312   51330       1   51315   51303   51312   51333       1
   51312   51330   51318   51336       1   51309   51300   51303   51315       1
   51309   51324   51339   51357       1   51309   51327   51348   51366       1
   51306   51300   51303   51315       1   51306   51318   51330   51354       1
   51306   51321   51339   51357       1   51303   51312   51330   51354       1
   51300   51303   51312   51333       1   51300   51306   51318   51336       1
   51300   51306   51321   51342       1   51300   51309   51327   51351       1
   51510   51498   51504   51513       1   51507   51495   51504   51513       1
   51501   51489   51498   51504       1   51501   51489   51498   51510       1
   51498   51504   51495   51507       1   51495   51504   51498   51510       1
   51492   51480   51486   51495       1   51489   51498   51504   51513       1
   51486   51477   51489   51501       1   51486   51495   51504   51513       1
   51483   51471   51480   51486       1   51483   51471   51480   51492       1
   51480   51486   51495   51507       1   51477   51486   51480   51492       1
   51477   51486   51495   51507       1   51477   51489   51498   51510       1
   51474   51456   51468   51477       1   51468   51453   51471   51483       1
   51468   51477   51489   51501       1   51459   51435   51456   51468       1
   51459   51435   51456   51474       1   51453   51432   51447   51465       1
   51453   51468   51456   51474       1   51453   51471   51480   51492       1
   51450   51429   51447   51465       1   51444   51426   51438   51462       1
   51441   51420   51438   51462       1   51432   51417   51435   51459       1
   51432   51447   51429   51450       1   51432   51453   51471   51483       1
   51429   51414   51426   51444       1   51426   51414   51429   51450       1
   51426   51438   51420   51441       1   51423   51411   51420   51438       1
   51423   51411   51420   51441       1   51420   51438   51426   51444       1
   51417   51408   51411   51423       1   51417   51432   51447   51465       1
   51417   51435   51456   51474       1   51414   51408   51411   51423       1
   51414   51426   51438   51462       1   51414   51429   51447   51465       1
   51411   51420   51438   51462       1   51408   51411   51420   51441       1
   51408   51414   51426   51444       1   51408   51414   51429   51450       1
   51408   51417   51435   51459       1   51618   51606   51612   51621       1
   51615   51603   51612   51621       1   51609   51597   51606   51612       1
   51609   51597   51606   51618       1   51606   51612   51603   51615       1
   51603   51612   51606   51618       1   51600   51588   51594   51603       1
   51597   51606   51612   51621       1   51594   51585   51597   51609       1
   51594   51603   51612   51621       1   51591   51579   51588   51594       1
   51591   51579   51588   51600       1   51588   51594   51603   51615       1
   51585   51594   51588   51600       1   51585   51594   51603   51615       1
   51585   51597   51606   51618       1   51582   51564   51576   51585       1
   51576   51561   51579   51591       1   51576   51585   51597   51609       1
   51567   51543   51564   51576       1   51567   51543   51564   51582       1
   51561   51540   51555   51573       1   51561   51576   51564   51582       1
   51561   51579   51588   51600       1   51558   51537   51555   51573       1
   51552   51534   51546   51570       1   51549   51528   51546   51570       1
   51540   51525   51543   51567       1   51540   51555   51537   51558       1
   51540   51561   51579   51591       1   51537   51522   51534   51552       1
   51534   51522   51537   51558       1   51534   51546   51528   51549       1
   51531   51519   51528   51546       1   51531   51519   51528   51549       1
   51528   51546   51534   51552       1   51525   51516   51519   51531       1
   51525   51540   51555   51573       1   51525   51543   51564   51582       1
   51522   51516   51519   51531       1   51522   51534   51546   51570       1
   51522   51537   51555   51573       1   51519   51528   51546   51570       1
   51516   51519   51528   51549       1   51516   51522   51534   51552       1
   51516   51522   51537   51558       1   51516   51525   51543   51567       1
   51726   51714   51720   51729       1   51723   51711   51720   51729       1
   51717   51705   51714   51720       1   51717   51705   51714   51726       1
   51714   51720   51711   51723       1   51711   51720   51714   51726       1
   51708   51696   51702   51711       1   51705   51714   51720   51729       1
   51702   51693   51705   51717       1   51702   51711   51720   51729       1
   51699   51687   51696   51702       1   51699   51687   51696   51708       1
   51696   51702   51711   51723       1   51693   51702   51696   51708       1
   51693   51702   51711   51723       1   51693   51705   51714   51726       1
   51690   51672   51684   51693       1   51684   51669   51687   51699       1
   51684   51693   51705   51717       1   51675   51651   51672   51684       1
   51675   51651   51672   51690       1   51669   51648   51663   51681       1
   51669   51684   51672   51690       1   51669   51687   51696   51708       1
   51666   51645   51663   51681       1   51660   51642   51654   51678       1
   51657   51636   51654   51678       1   51648   51633   51651   51675       1
   51648   51663   51645   51666       1   51648   51669   51687   51699       1
   51645   51630   51642   51660       1   51642   51630   51645   51666       1
   51642   51654   51636   51657       1   51639   51627   51636   51654       1
   51639   51627   51636   51657       1   51636   51654   51642   51660       1
   51633   51624   51627   51639       1   51633   51648   51663   51681       1
   51633   51651   51672   51690       1   51630   51624   51627   51639       1
   51630   51642   51654   51678       1   51630   51645   51663   51681       1
   51627   51636   51654   51678       1   51624   51627   51636   51657       1
   51624   51630   51642   51660       1   51624   51630   51645   51666       1
   51624   51633   51651   51675       1   51834   51822   51828   51837       1
   51831   51819   51828   51837       1   51825   51813   51822   51828       1
   51825   51813   51822   51834       1   51822   51828   51819   51831       1
   51819   51828   51822   51834       1   51816   51804   51810   51819       1
   51813   51822   51828   51837       1   51810   51801   51813   51825       1
   51810   51819   51828   51837       1   51807   51795   51804   51810       1
   51807   51795   51804   51816       1   51804   51810   51819   51831       1
   51801   51810   51804   51816       1   51801   51810   51819   51831       1
   51801   51813   51822   51834       1   51798   51780   51792   51801       1
   51792   51777   51795   51807       1   51792   51801   51813   51825       1
   51783   51759   51780   51792       1   51783   51759   51780   51798       1
   51777   51756   51771   51789       1   51777   51792   51780   51798       1
   51777   51795   51804   51816       1   51774   51753   51771   51789       1
   51768   51750   51762   51786       1   51765   51744   51762   51786       1
   51756   51741   51759   51783       1   51756   51771   51753   51774       1
   51756   51777   51795   51807       1   51753   51738   51750   51768       1
   51750   51738   51753   51774       1   51750   51762   51744   51765       1
   51747   51735   51744   51762       1   51747   51735   51744   51765       1
   51744   51762   51750   51768       1   51741   51732   51735   51747       1
   51741   51756   51771   51789       1   51741   51759   51780   51798       1
   51738   51732   51735   51747       1   51738   51750   51762   51786       1
   51738   51753   51771   51789       1   51735   51744   51762   51786       1
   51732   51735   51744   51765       1   51732   51738   51750   51768       1
   51732   51738   51753   51774       1   51732   51741   51759   51783       1
   51942   51930   51936   51945       1   51939   51927   51936   51945       1
   51933   51921   51930   51936       1   51933   51921   51930   51942       1
   51930   51936   51927   51939       1   51927   51936   51930   51942       1
   51924   51912   51918   51927       1   51921   51930   51936   51945       1
   51918   51909   51921   51933       1   51918   51927   51936   51945       1
   51915   51903   51912   51918       1   51915   51903   51912   51924       1
   51912   51918   51927   51939       1   51909   51918   51912   51924       1
   51909   51918   51927   51939       1   51909   51921   51930   51942       1
   51906   51888   51900   51909       1   51900   51885   51903   51915       1
   51900   51909   51921   51933       1   51891   51867   51888   51900       1
   51891   51867   51888   51906       1   51885   51864   51879   51897       1
   51885   51900   51888   51906       1   51885   51903   51912   51924       1
   51882   51861   51879   51897       1   51876   51858   51870   51894       1
   51873   51852   51870   51894       1   51864   51849   51867   51891       1
   51864   51879   51861   51882       1   51864   51885   51903   51915       1
   51861   51846   51858   51876       1   51858   51846   51861   51882       1
   51858   51870   51852   51873       1   51855   51843   51852   51870       1
   51855   51843   51852   51873       1   51852   51870   51858   51876       1
   51849   51840   51843   51855       1   51849   51864   51879   51897       1
   51849   51867   51888   51906       1   51846   51840   51843   51855       1
   51846   51858   51870   51894       1   51846   51861   51879   51897       1
   51843   51852   51870   51894       1   51840   51843   51852   51873       1
   51840   51846   51858   51876       1   51840   51846   51861   51882       1
   51840   51849   51867   51891       1   52050   52038   52044   52053       1
   52047   52035   52044   52053       1   52041   52029   52038   52044       1
   52041   52029   52038   52050       1   52038   52044   52035   52047       1
   52035   52044   52038   52050       1   52032   52020   52026   52035       1
   52029   52038   52044   52053       1   52026   52017   52029   52041       1
   52026   52035   52044   52053       1   52023   52011   52020   52026       1
   52023   52011   52020   52032       1   52020   52026   52035   52047       1
   52017   52026   52020   52032       1   52017   52026   52035   52047       1
   52017   52029   52038   52050       1   52014   51996   52008   52017       1
   52008   51993   52011   52023       1   52008   52017   52029   52041       1
   51999   51975   51996   52008       1   51999   51975   51996   52014       1
   51993   51972   51987   52005       1   51993   52008   51996   52014       1
   51993   52011   52020   52032       1   51990   51969   51987   52005       1
   51984   51966   51978   52002       1   51981   51960   51978   52002       1
   51972   51957   51975   51999       1   51972   51987   51969   51990       1
   51972   51993   52011   52023       1   51969   51954   51966   51984       1
   51966   51954   51969   51990       1   51966   51978   51960   51981       1
   51963   51951   51960   51978       1   51963   51951   51960   51981       1
   51960   51978   51966   51984       1   51957   51948   51951   51963       1
   51957   51972   51987   52005       1   51957   51975   51996   52014       1
   51954   51948   51951   51963       1   51954   51966   51978   52002       1
   51954   51969   51987   52005       1   51951   51960   51978   52002       1
   51948   51951   51960   51981       1   51948   51954   51966   51984       1
   51948   51954   51969   51990       1   51948   51957   51975   51999       1
   52158   52146   52152   52161       1   52155   52143   52152   52161       1
   52149   52137   52146   52152       1   52149   52137   52146   52158       1
   52146   52152   52143   52155       1   52143   52152   52146   52158       1
   52140   52128   52134   52143       1   52137   52146   52152   52161       1
   52134   52125   52137   52149       1   52134   52143   52152   52161       1
   52131   52119   52128   52134       1   52131   52119   52128   52140       1
   52128   52134   52143   52155       1   52125   52134   52128   52140       1
   52125   52134   52143   52155       1   52125   52137   52146   52158       1
   52122   52104   52116   52125       1   52116   52101   52119   52131       1
   52116   52125   52137   52149       1   52107   52083   52104   52116       1
   52107   52083   52104   52122       1   52101   52080   52095   52113       1
   52101   52116   52104   52122       1   52101   52119   52128   52140       1
   52098   52077   52095   52113       1   52092   52074   52086   52110       1
   52089   52068   52086   52110       1   52080   52065   52083   52107       1
   52080   52095   52077   52098       1   52080   52101   52119   52131       1
   52077   52062   52074   52092       1   52074   52062   52077   52098       1
   52074   52086   52068   52089       1   52071   52059   52068   52086       1
   52071   52059   52068   52089       1   52068   52086   52074   52092       1
   52065   52056   52059   52071       1   52065   52080   52095   52113       1
   52065   52083   52104   52122       1   52062   52056   52059   52071       1
   52062   52074   52086   52110       1   52062   52077   52095   52113       1
   52059   52068   52086   52110       1   52056   52059   52068   52089       1
   52056   52062   52074   52092       1   52056   52062   52077   52098       1
   52056   52065   52083   52107       1   52266   52254   52260   52269       1
   52263   52251   52260   52269       1   52257   52245   52254   52260       1
   52257   52245   52254   52266       1   52254   52260   52251   52263       1
   52251   52260   52254   52266       1   52248   52236   52242   52251       1
   52245   52254   52260   52269       1   52242   52233   52245   52257       1
   52242   52251   52260   52269       1   52239   52227   52236   52242       1
   52239   52227   52236   52248       1   52236   52242   52251   52263       1
   52233   52242   52236   52248       1   52233   52242   52251   52263       1
   52233   52245   52254   52266       1   52230   52212   52224   52233       1
   52224   52209   52227   52239       1   52224   52233   52245   52257       1
   52215   52191   52212   52224       1   52215   52191   52212   52230       1
   52209   52188   52203   52221       1   52209   52224   52212   52230       1
   52209   52227   52236   52248       1   52206   52185   52203   52221       1
   52200   52182   52194   52218       1   52197   52176   52194   52218       1
   52188   52173   52191   52215       1   52188   52203   52185   52206       1
   52188   52209   52227   52239       1   52185   52170   52182   52200       1
   52182   52170   52185   52206       1   52182   52194   52176   52197       1
   52179   52167   52176   52194       1   52179   52167   52176   52197       1
   52176   52194   52182   52200       1   52173   52164   52167   52179       1
   52173   52188   52203   52221       1   52173   52191   52212   52230       1
   52170   52164   52167   52179       1   52170   52182   52194   52218       1
   52170   52185   52203   52221       1   52167   52176   52194   52218       1
   52164   52167   52176   52197       1   52164   52170   52182   52200       1
   52164   52170   52185   52206       1   52164   52173   52191   52215       1
   52374   52362   52368   52377       1   52371   52359   52368   52377       1
   52365   52353   52362   52368       1   52365   52353   52362   52374       1
   52362   52368   52359   52371       1   52359   52368   52362   52374       1
   52356   52344   52350   52359       1   52353   52362   52368   52377       1
   52350   52341   52353   52365       1   52350   52359   52368   52377       1
   52347   52335   52344   52350       1   52347   52335   52344   52356       1
   52344   52350   52359   52371       1   52341   52350   52344   52356       1
   52341   52350   52359   52371       1   52341   52353   52362   52374       1
   52338   52320   52332   52341       1   52332   52317   52335   52347       1
   52332   52341   52353   52365       1   52323   52299   52320   52332       1
   52323   52299   52320   52338       1   52317   52296   52311   52329       1
   52317   52332   52320   52338       1   52317   52335   52344   52356       1
   52314   52293   52311   52329       1   52308   52290   52302   52326       1
   52305   52284   52302   52326       1   52296   52281   52299   52323       1
   52296   52311   52293   52314       1   52296   52317   52335   52347       1
   52293   52278   52290   52308       1   52290   52278   52293   52314       1
   52290   52302   52284   52305       1   52287   52275   52284   52302       1
   52287   52275   52284   52305       1   52284   52302   52290   52308       1
   52281   52272   52275   52287       1   52281   52296   52311   52329       1
   52281   52299   52320   52338       1   52278   52272   52275   52287       1
   52278   52290   52302   52326       1   52278   52293   52311   52329       1
   52275   52284   52302   52326       1   52272   52275   52284   52305       1
   52272   52278   52290   52308       1   52272   52278   52293   52314       1
   52272   52281   52299   52323       1   52482   52470   52476   52485       1
   52479   52467   52476   52485       1   52473   52461   52470   52476       1
   52473   52461   52470   52482       1   52470   52476   52467   52479       1
   52467   52476   52470   52482       1   52464   52452   52458   52467       1
   52461   52470   52476   52485       1   52458   52449   52461   52473       1
   52458   52467   52476   52485       1   52455   52443   52452   52458       1
   52455   52443   52452   52464       1   52452   52458   52467   52479       1
   52449   52458   52452   52464       1   52449   52458   52467   52479       1
   52449   52461   52470   52482       1   52446   52428   52440   52449       1
   52440   52425   52443   52455       1   52440   52449   52461   52473       1
   52431   52407   52428   52440       1   52431   52407   52428   52446       1
   52425   52404   52419   52437       1   52425   52440   52428   52446       1
   52425   52443   52452   52464       1   52422   52401   52419   52437       1
   52416   52398   52410   52434       1   52413   52392   52410   52434       1
   52404   52389   52407   52431       1   52404   52419   52401   52422       1
   52404   52425   52443   52455       1   52401   52386   52398   52416       1
   52398   52386   52401   52422       1   52398   52410   52392   52413       1
   52395   52383   52392   52410       1   52395   52383   52392   52413       1
   52392   52410   52398   52416       1   52389   52380   52383   52395       1
   52389   52404   52419   52437       1   52389   52407   52428   52446       1
   52386   52380   52383   52395       1   52386   52398   52410   52434       1
   52386   52401   52419   52437       1   52383   52392   52410   52434       1
   52380   52383   52392   52413       1   52380   52386   52398   52416       1
   52380   52386   52401   52422       1   52380   52389   52407   52431       1
   52590   52578   52584   52593       1   52587   52575   52584   52593       1
   52581   52569   52578   52584       1   52581   52569   52578   52590       1
   52578   52584   52575   52587       1   52575   52584   52578   52590       1
   52572   52560   52566   52575       1   52569   52578   52584   52593       1
   52566   52557   52569   52581       1   52566   52575   52584   52593       1
   52563   52551   52560   52566       1   52563   52551   52560   52572       1
   52560   52566   52575   52587       1   52557   52566   52560   52572       1
   52557   52566   52575   52587       1   52557   52569   52578   52590       1
   52554   52536   52548   52557       1   52548   52533   52551   52563       1
   52548   52557   52569   52581       1   52539   52515   52536   52548       1
   52539   52515   52536   52554       1   52533   52512   52527   52545       1
   52533   52548   52536   52554       1   52533   52551   52560   52572       1
   52530   52509   52527   52545       1   52524   52506   52518   52542       1
   52521   52500   52518   52542       1   52512   52497   52515   52539       1
   52512   52527   52509   52530       1   52512   52533   52551   52563       1
   52509   52494   52506   52524       1   52506   52494   52509   52530       1
   52506   52518   52500   52521       1   52503   52491   52500   52518       1
   52503   52491   52500   52521       1   52500   52518   52506   52524       1
   52497   52488   52491   52503       1   52497   52512   52527   52545       1
   52497   52515   52536   52554       1   52494   52488   52491   52503       1
   52494   52506   52518   52542       1   52494   52509   52527   52545       1
   52491   52500   52518   52542       1   52488   52491   52500   52521       1
   52488   52494   52506   52524       1   52488   52494   52509   52530       1
   52488   52497   52515   52539       1   52698   52686   52692   52701       1
   52695   52683   52692   52701       1   52689   52677   52686   52692       1
   52689   52677   52686   52698       1   52686   52692   52683   52695       1
   52683   52692   52686   52698       1   52680   52668   52674   52683       1
   52677   52686   52692   52701       1   52674   52665   52677   52689       1
   52674   52683   52692   52701       1   52671   52659   52668   52674       1
   52671   52659   52668   52680       1   52668   52674   52683   52695       1
   52665   52674   52668   52680       1   52665   52674   52683   52695       1
   52665   52677   52686   52698       1   52662   52644   52656   52665       1
   52656   52641   52659   52671       1   52656   52665   52677   52689       1
   52647   52623   52644   52656       1   52647   52623   52644   52662       1
   52641   52620   52635   52653       1   52641   52656   52644   52662       1
   52641   52659   52668   52680       1   52638   52617   52635   52653       1
   52632   52614   52626   52650       1   52629   52608   52626   52650       1
   52620   52605   52623   52647       1   52620   52635   52617   52638       1
   52620   52641   52659   52671       1   52617   52602   52614   52632       1
   52614   52602   52617   52638       1   52614   52626   52608   52629       1
   52611   52599   52608   52626       1   52611   52599   52608   52629       1
   52608   52626   52614   52632       1   52605   52596   52599   52611       1
   52605   52620   52635   52653       1   52605   52623   52644   52662       1
   52602   52596   52599   52611       1   52602   52614   52626   52650       1
   52602   52617   52635   52653       1   52599   52608   52626   52650       1
   52596   52599   52608   52629       1   52596   52602   52614   52632       1
   52596   52602   52617   52638       1   52596   52605   52623   52647       1
   52806   52794   52800   52809       1   52803   52791   52800   52809       1
   52797   52785   52794   52800       1   52797   52785   52794   52806       1
   52794   52800   52791   52803       1   52791   52800   52794   52806       1
   52788   52776   52782   52791       1   52785   52794   52800   52809       1
   52782   52773   52785   52797       1   52782   52791   52800   52809       1
   52779   52767   52776   52782       1   52779   52767   52776   52788       1
   52776   52782   52791   52803       1   52773   52782   52776   52788       1
   52773   52782   52791   52803       1   52773   52785   52794   52806       1
   52770   52752   52764   52773       1   52764   52749   52767   52779       1
   52764   52773   52785   52797       1   52755   52731   52752   52764       1
   52755   52731   52752   52770       1   52749   52728   52743   52761       1
   52749   52764   52752   52770       1   52749   52767   52776   52788       1
   52746   52725   52743   52761       1   52740   52722   52734   52758       1
   52737   52716   52734   52758       1   52728   52713   52731   52755       1
   52728   52743   52725   52746       1   52728   52749   52767   52779       1
   52725   52710   52722   52740       1   52722   52710   52725   52746       1
   52722   52734   52716   52737       1   52719   52707   52716   52734       1
   52719   52707   52716   52737       1   52716   52734   52722   52740       1
   52713   52704   52707   52719       1   52713   52728   52743   52761       1
   52713   52731   52752   52770       1   52710   52704   52707   52719       1
   52710   52722   52734   52758       1   52710   52725   52743   52761       1
   52707   52716   52734   52758       1   52704   52707   52716   52737       1
   52704   52710   52722   52740       1   52704   52710   52725   52746       1
   52704   52713   52731   52755       1   52914   52902   52908   52917       1
   52911   52899   52908   52917       1   52905   52893   52902   52908       1
   52905   52893   52902   52914       1   52902   52908   52899   52911       1
   52899   52908   52902   52914       1   52896   52884   52890   52899       1
   52893   52902   52908   52917       1   52890   52881   52893   52905       1
   52890   52899   52908   52917       1   52887   52875   52884   52890       1
   52887   52875   52884   52896       1   52884   52890   52899   52911       1
   52881   52890   52884   52896       1   52881   52890   52899   52911       1
   52881   52893   52902   52914       1   52878   52860   52872   52881       1
   52872   52857   52875   52887       1   52872   52881   52893   52905       1
   52863   52839   52860   52872       1   52863   52839   52860   52878       1
   52857   52836   52851   52869       1   52857   52872   52860   52878       1
   52857   52875   52884   52896       1   52854   52833   52851   52869       1
   52848   52830   52842   52866       1   52845   52824   52842   52866       1
   52836   52821   52839   52863       1   52836   52851   52833   52854       1
   52836   52857   52875   52887       1   52833   52818   52830   52848       1
   52830   52818   52833   52854       1   52830   52842   52824   52845       1
   52827   52815   52824   52842       1   52827   52815   52824   52845       1
   52824   52842   52830   52848       1   52821   52812   52815   52827       1
   52821   52836   52851   52869       1   52821   52839   52860   52878       1
   52818   52812   52815   52827       1   52818   52830   52842   52866       1
   52818   52833   52851   52869       1   52815   52824   52842   52866       1
   52812   52815   52824   52845       1   52812   52818   52830   52848       1
   52812   52818   52833   52854       1   52812   52821   52839   52863       1
      87      90     -96    -105       2      81      96     -90    -102       2
      78      96     -87     -99       2      69      90     -81     -93       2
      63      78     -72     -84       2      45      72     -63     -75       2
      27      60     -48     -66       2      21      24     -39     -57       2
      12      18     -30     -54       2       9      48     -27     -51       2
       6      39     -21     -42       2       6      30     -18     -36       2
       3      30     -12     -33       2       0      12      -3     -15       2
     195     198    -204    -213       2     189     204    -198    -210       2
     186     204    -195    -207       2     177     198    -189    -201       2
     171     186    -180    -192       2     153     180    -171    -183       2
     135     168    -156    -174       2     129     132    -147    -165       2
     120     126    -138    -162       2     117     156    -135    -159       2
     114     147    -129    -150       2     114     138    -126    -144       2
     111     138    -120    -141       2     108     120    -111    -123       2
     303     306    -312    -321       2     297     312    -306    -318       2
     294     312    -303    -315       2     285     306    -297    -309       2
     279     294    -288    -300       2     261     288    -279    -291       2
     243     276    -264    -282       2     237     240    -255    -273       2
     228     234    -246    -270       2     225     264    -243    -267       2
     222     255    -237    -258       2     222     246    -234    -252       2
     219     246    -228    -249       2     216     228    -219    -231       2
     411     414    -420    -429       2     405     420    -414    -426       2
     402     420    -411    -423       2     393     414    -405    -417       2
     387     402    -396    -408       2     369     396    -387    -399       2
     351     384    -372    -390       2     345     348    -363    -381       2
     336     342    -354    -378       2     333     372    -351    -375       2
     330     363    -345    -366       2     330     354    -342    -360       2
     327     354    -336    -357       2     324     336    -327    -339       2
     519     522    -528    -537       2     513     528    -522    -534       2
     510     528    -519    -531       2     501     522    -513    -525       2
     495     510    -504    -516       2     477     504    -495    -507       2
     459     492    -480    -498       2     453     456    -471    -489       2
     444     450    -462    -486       2     441     480    -459    -483       2
     438     471    -453    -474       2     438     462    -450    -468       2
     435     462    -444    -465       2     432     444    -435    -447       2
     627     630    -636    -645       2     621     636    -630    -642       2
     618     636    -627    -639       2     609     630    -621    -633       2
     603     618    -612    -624       2     585     612    -603    -615       2
     567     600    -588    -606       2     561     564    -579    -597       2
     552     558    -570    -594       2     549     588    -567    -591       2
     546     579    -561    -582       2     546     570    -558    -576       2
     543     570    -552    -573       2     540     552    -543    -555       2
     735     738    -744    -753       2     729     744    -738    -750       2
     726     744    -735    -747       2     717     738    -729    -741       2
     711     726    -720    -732       2     693     720    -711    -723       2
     675     708    -696    -714       2     669     672    -687    -705       2
     660     666    -678    -702       2     657     696    -675    -699       2
     654     687    -669    -690       2     654     678    -666    -684       2
     651     678    -660    -681       2     648     660    -651    -663       2
     843     846    -852    -861       2     837     852    -846    -858       2
     834     852    -843    -855       2     825     846    -837    -849       2
     819     834    -828    -840       2     801     828    -819    -831       2
     783     816    -804    -822       2     777     780    -795    -813       2
     768     774    -786    -810       2     765     804    -783    -807       2
     762     795    -777    -798       2     762     786    -774    -792       2
     759     786    -768    -789       2     756     768    -759    -771       2
     951     954    -960    -969       2     945     960    -954    -966       2
     942     960    -951    -963       2     933     954    -945    -957       2
     927     942    -936    -948       2     909     936    -927    -939       2
     891     924    -912    -930       2     885     888    -903    -921       2
     876     882    -894    -918       2     873     912    -891    -915       2
     870     903    -885    -906       2     870     894    -882    -900       2
     867     894    -876    -897       2     864     876    -867    -879       2
    1059    1062   -1068   -1077       2    1053    1068   -1062   -1074       2
    1050    1068   -1059   -1071       2    1041    1062   -1053   -1065       2
    1035    1050   -1044   -1056       2    1017    1044   -1035   -1047       2
     999    1032   -1020   -1038       2     993     996   -1011   -1029       2
     984     990   -1002   -1026       2     981    1020    -999   -1023       2
     978    1011    -993   -1014       2     978    1002    -990   -1008       2
     975    1002    -984   -1005       2     972     984    -975    -987       2
    1167    1170   -1176   -1185       2    1161    1176   -1170   -1182       2
    1158    1176   -1167   -1179       2    1149    1170   -1161   -1173       2
    1143    1158   -1152   -1164       2    1125    1152   -1143   -1155       2
    1107    1140   -1128   -1146       2    1101    1104   -1119   -1137       2
    1092    1098   -1110   -1134       2    1089    1128   -1107   -1131       2
    1086    1119   -1101   -1122       2    1086    1110   -1098   -1116       2
    1083    1110   -1092   -1113       2    1080    1092   -1083   -1095       2
    1275    1278   -1284   -1293       2    1269    1284   -1278   -1290       2
    1266    1284   -1275   -1287       2    1257    1278   -1269   -1281       2
    1251    1266   -1260   -1272       2    1233    1260   -1251   -1263       2
    1215    1248   -1236   -1254       2    1209    1212   -1227   -1245       2
    1200    1206   -1218   -1242       2    1197    1236   -1215   -1239       2
    1194    1227   -1209   -1230       2    1194    1218   -1206   -1224       2
    1191    1218   -1200   -1221       2    1188    1200   -1191   -1203       2
    1383    1386   -1392   -1401       2    1377    1392   -1386   -1398       2
    1374    1392   -1383   -1395       2    1365    1386   -1377   -1389       2
    1359    1374   -1368   -1380       2    1341    1368   -1359   -1371       2
    1323    1356   -1344   -1362       2    1317    1320   -1335   -1353       2
    1308    1314   -1326   -1350       2    1305    1344   -1323   -1347       2
    1302    1335   -1317   -1338       2    1302    1326   -1314   -1332       2
    1299    1326   -1308   -1329       2    1296    1308   -1299   -1311       2
    1491    1494   -1500   -1509       2    1485    1500   -1494   -1506       2
    1482    1500   -1491   -1503       2    1473    1494   -1485   -1497       2
    1467    1482   -1476   -1488       2    1449    1476   -1467   -1479       2
    1431    1464   -1452   -1470       2    1425    1428   -1443   -1461       2
    1416    1422   -1434   -1458       2    1413    1452   -1431   -1455       2
    1410    1443   -1425   -1446       2    1410    1434   -1422   -1440       2
    1407    1434   -1416   -1437       2    1404    1416   -1407   -1419       2
    1599    1602   -1608   -1617       2    1593    1608   -1602   -1614       2
    1590    1608   -1599   -1611       2    1581    1602   -1593   -1605       2
    1575    1590   -1584   -1596       2    1557    1584   -1575   -1587       2
    1539    1572   -1560   -1578       2    1533    1536   -1551   -1569       2
    1524    1530   -1542   -1566       2    1521    1560   -1539   -1563       2
    1518    1551   -1533   -1554       2    1518    1542   -1530   -1548       2
    1515    1542   -1524   -1545       2    1512    1524   -1515   -1527       2
    1707    1710   -1716   -1725       2    1701    1716   -1710   -1722       2
    1698    1716   -1707   -1719       2    1689    1710   -1701   -1713       2
    1683    1698   -1692   -1704       2    1665    1692   -1683   -1695       2
    1647    1680   -1668   -1686       2    1641    1644   -1659   -1677       2
    1632    1638   -1650   -1674       2    1629    1668   -1647   -1671       2
    1626    1659   -1641   -1662       2    1626    1650   -1638   -1656       2
    1623    1650   -1632   -1653       2    1620    1632   -1623   -1635       2
    1815    1818   -1824   -1833       2    1809    1824   -1818   -1830       2
    1806    1824   -1815   -1827       2    1797    1818   -1809   -1821       2
    1791    1806   -1800   -1812       2    1773    1800   -1791   -1803       2
    1755    1788   -1776   -1794       2    1749    1752   -1767   -1785       2
    1740    1746   -1758   -1782       2    1737    1776   -1755   -1779       2
    1734    1767   -1749   -1770       2    1734    1758   -1746   -1764       2
    1731    1758   -1740   -1761       2    1728    1740   -1731   -1743       2
    1923    1926   -1932   -1941       2    1917    1932   -1926   -1938       2
    1914    1932   -1923   -1935       2    1905    1926   -1917   -1929       2
    1899    1914   -1908   -1920       2    1881    1908   -1899   -1911       2
    1863    1896   -1884   -1902       2    1857    1860   -1875   -1893       2
    1848    1854   -1866   -1890       2    1845    1884   -1863   -1887       2
    1842    1875   -1857   -1878       2    1842    1866   -1854   -1872       2
    1839    1866   -1848   -1869       2    1836    1848   -1839   -1851       2
    2031    2034   -2040   -2049       2    2025    2040   -2034   -2046       2
    2022    2040   -2031   -2043       2    2013    2034   -2025   -2037       2
    2007    2022   -2016   -2028       2    1989    2016   -2007   -2019       2
    1971    2004   -1992   -2010       2    1965    1968   -1983   -2001       2
    1956    1962   -1974   -1998       2    1953    1992   -1971   -1995       2
    1950    1983   -1965   -1986       2    1950    1974   -1962   -1980       2
    1947    1974   -1956   -1977       2    1944    1956   -1947   -1959       2
    2139    2142   -2148   -2157       2    2133    2148   -2142   -2154       2
    2130    2148   -2139   -2151       2    2121    2142   -2133   -2145       2
    2115    2130   -2124   -2136       2    2097    2124   -2115   -2127       2
    2079    2112   -2100   -2118       2    2073    2076   -2091   -2109       2
    2064    2070   -2082   -2106       2    2061    2100   -2079   -2103       2
    2058    2091   -2073   -2094       2    2058    2082   -2070   -2088       2
    2055    2082   -2064   -2085       2    2052    2064   -2055   -2067       2
    2247    2250   -2256   -2265       2    2241    2256   -2250   -2262       2
    2238    2256   -2247   -2259       2    2229    2250   -2241   -2253       2
    2223    2238   -2232   -2244       2    2205    2232   -2223   -2235       2
    2187    2220   -2208   -2226       2    2181    2184   -2199   -2217       2
    2172    2178   -2190   -2214       2    2169    2208   -2187   -2211       2
    2166    2199   -2181   -2202       2    2166    2190   -2178   -2196       2
    2163    2190   -2172   -2193       2    2160    2172   -2163   -2175       2
    2355    2358   -2364   -2373       2    2349    2364   -2358   -2370       2
    2346    2364   -2355   -2367       2    2337    2358   -2349   -2361       2
    2331    2346   -2340   -2352       2    2313    2340   -2331   -2343       2
    2295    2328   -2316   -2334       2    2289    2292   -2307   -2325       2
    2280    2286   -2298   -2322       2    2277    2316   -2295   -2319       2
    2274    2307   -2289   -2310       2    2274    2298   -2286   -2304       2
    2271    2298   -2280   -2301       2    2268    2280   -2271   -2283       2
    2463    2466   -2472   -2481       2    2457    2472   -2466   -2478       2
    2454    2472   -2463   -2475       2    2445    2466   -2457   -2469       2
    2439    2454   -2448   -2460       2    2421    2448   -2439   -2451       2
    2403    2436   -2424   -2442       2    2397    2400   -2415   -2433       2
    2388    2394   -2406   -2430       2    2385    2424   -2403   -2427       2
    2382    2415   -2397   -2418       2    2382    2406   -2394   -2412       2
    2379    2406   -2388   -2409       2    2376    2388   -2379   -2391       2
    2571    2574   -2580   -2589       2    2565    2580   -2574   -2586       2
    2562    2580   -2571   -2583       2    2553    2574   -2565   -2577       2
    2547    2562   -2556   -2568       2    2529    2556   -2547   -2559       2
    2511    2544   -2532   -2550       2    2505    2508   -2523   -2541       2
    2496    2502   -2514   -2538       2    2493    2532   -2511   -2535       2
    2490    2523   -2505   -2526       2    2490    2514   -2502   -2520       2
    2487    2514   -2496   -2517       2    2484    2496   -2487   -2499       2
    2679    2682   -2688   -2697       2    2673    2688   -2682   -2694       2
    2670    2688   -2679   -2691       2    2661    2682   -2673   -2685       2
    2655    2670   -2664   -2676       2    2637    2664   -2655   -2667       2
    2619    2652   -2640   -2658       2    2613    2616   -2631   -2649       2
    2604    2610   -2622   -2646       2    2601    2640   -2619   -2643       2
    2598    2631   -2613   -2634       2    2598    2622   -2610   -2628       2
    2595    2622   -2604   -2625       2    2592    2604   -2595   -2607       2
    2787    2790   -2796   -2805       2    2781    2796   -2790   -2802       2
    2778    2796   -2787   -2799       2    2769    2790   -2781   -2793       2
    2763    2778   -2772   -2784       2    2745    2772   -2763   -2775       2
    2727    2760   -2748   -2766       2    2721    2724   -2739   -2757       2
    2712    2718   -2730   -2754       2    2709    2748   -2727   -2751       2
    2706    2739   -2721   -2742       2    2706    2730   -2718   -2736       2
    2703    2730   -2712   -2733       2    2700    2712   -2703   -2715       2
    2895    2898   -2904   -2913       2    2889    2904   -2898   -2910       2
    2886    2904   -2895   -2907       2    2877    2898   -2889   -2901       2
    2871    2886   -2880   -2892       2    2853    2880   -2871   -2883       2
    2835    2868   -2856   -2874       2    2829    2832   -2847   -2865       2
    2820    2826   -2838   -2862       2    2817    2856   -2835   -2859       2
    2814    2847   -2829   -2850       2    2814    2838   -2826   -2844       2
    2811    2838   -2820   -2841       2    2808    2820   -2811   -2823       2
    3003    3006   -3012   -3021       2    2997    3012   -3006   -3018       2
    2994    3012   -3003   -3015       2    2985    3006   -2997   -3009       2
    2979    2994   -2988   -3000       2    2961    2988   -2979   -2991       2
    2943    2976   -2964   -2982       2    2937    2940   -2955   -2973       2
    2928    2934   -2946   -2970       2    2925    2964   -2943   -2967       2
    2922    2955   -2937   -2958       2    2922    2946   -2934   -2952       2
    2919    2946   -2928   -2949       2    2916    2928   -2919   -2931       2
    3111    3114   -3120   -3129       2    3105    3120   -3114   -3126       2
    3102    3120   -3111   -3123       2    3093    3114   -3105   -3117       2
    3087    3102   -3096   -3108       2    3069    3096   -3087   -3099       2
    3051    3084   -3072   -3090       2    3045    3048   -3063   -3081       2
    3036    3042   -3054   -3078       2    3033    3072   -3051   -3075       2
    3030    3063   -3045   -3066       2    3030    3054   -3042   -3060       2
    3027    3054   -3036   -3057       2    3024    3036   -3027   -3039       2
    3219    3222   -3228   -3237       2    3213    3228   -3222   -3234       2
    3210    3228   -3219   -3231       2    3201    3222   -3213   -3225       2
    3195    3210   -3204   -3216       2    3177    3204   -3195   -3207       2
    3159    3192   -3180   -3198       2    3153    3156   -3171   -3189       2
    3144    3150   -3162   -3186       2    3141    3180   -3159   -3183       2
    3138    3171   -3153   -3174       2    3138    3162   -3150   -3168       2
    3135    3162   -3144   -3165       2    3132    3144   -3135   -3147       2
    3327    3330   -3336   -3345       2    3321    3336   -3330   -3342       2
    3318    3336   -3327   -3339       2    3309    3330   -3321   -3333       2
    3303    3318   -3312   -3324       2    3285    3312   -3303   -3315       2
    3267    3300   -3288   -3306       2    3261    3264   -3279   -3297       2
    3252    3258   -3270   -3294       2    3249    3288   -3267   -3291       2
    3246    3279   -3261   -3282       2    3246    3270   -3258   -3276       2
    3243    3270   -3252   -3273       2    3240    3252   -3243   -3255       2
    3435    3438   -3444   -3453       2    3429    3444   -3438   -3450       2
    3426    3444   -3435   -3447       2    3417    3438   -3429   -3441       2
    3411    3426   -3420   -3432       2    3393    3420   -3411   -3423       2
    3375    3408   -3396   -3414       2    3369    3372   -3387   -3405       2
    3360    3366   -3378   -3402       2    3357    3396   -3375   -3399       2
    3354    3387   -3369   -3390       2    3354    3378   -3366   -3384       2
    3351    3378   -3360   -3381       2    3348    3360   -3351   -3363       2
    3543    3546   -3552   -3561       2    3537    3552   -3546   -3558       2
    3534    3552   -3543   -3555       2    3525    3546   -3537   -3549       2
    3519    3534   -3528   -3540       2    3501    3528   -3519   -3531       2
    3483    3516   -3504   -3522       2    3477    3480   -3495   -3513       2
    3468    3474   -3486   -3510       2    3465    3504   -3483   -3507       2
    3462    3495   -3477   -3498       2    3462    3486   -3474   -3492       2
    3459    3486   -3468   -3489       2    3456    3468   -3459   -3471       2
    3651    3654   -3660   -3669       2    3645    3660   -3654   -3666       2
    3642    3660   -3651   -3663       2    3633    3654   -3645   -3657       2
    3627    3642   -3636   -3648       2    3609    3636   -3627   -3639       2
    3591    3624   -3612   -3630       2    3585    3588   -3603   -3621       2
    3576    3582   -3594   -3618       2    3573    3612   -3591   -3615       2
    3570    3603   -3585   -3606       2    3570    3594   -3582   -3600       2
    3567    3594   -3576   -3597       2    3564    3576   -3567   -3579       2
    3759    3762   -3768   -3777       2    3753    3768   -3762   -3774       2
    3750    3768   -3759   -3771       2    3741    3762   -3753   -3765       2
    3735    3750   -3744   -3756       2    3717    3744   -3735   -3747       2
    3699    3732   -3720   -3738       2    3693    3696   -3711   -3729       2
    3684    3690   -3702   -3726       2    3681    3720   -3699   -3723       2
    3678    3711   -3693   -3714       2    3678    3702   -3690   -3708       2
    3675    3702   -3684   -3705       2    3672    3684   -3675   -3687       2
    3867    3870   -3876   -3885       2    3861    3876   -3870   -3882       2
    3858    3876   -3867   -3879       2    3849    3870   -3861   -3873       2
    3843    3858   -3852   -3864       2    3825    3852   -3843   -3855       2
    3807    3840   -3828   -3846       2    3801    3804   -3819   -3837       2
    3792    3798   -3810   -3834       2    3789    3828   -3807   -3831       2
    3786    3819   -3801   -3822       2    3786    3810   -3798   -3816       2
    3783    3810   -3792   -3813       2    3780    3792   -3783   -3795       2
    3975    3978   -3984   -3993       2    3969    3984   -3978   -3990       2
    3966    3984   -3975   -3987       2    3957    3978   -3969   -3981       2
    3951    3966   -3960   -3972       2    3933    3960   -3951   -3963       2
    3915    3948   -3936   -3954       2    3909    3912   -3927   -3945       2
    3900    3906   -3918   -3942       2    3897    3936   -3915   -3939       2
    3894    3927   -3909   -3930       2    3894    3918   -3906   -3924       2
    3891    3918   -3900   -3921       2    3888    3900   -3891   -3903       2
    4083    4086   -4092   -4101       2    4077    4092   -4086   -4098       2
    4074    4092   -4083   -4095       2    4065    4086   -4077   -4089       2
    4059    4074   -4068   -4080       2    4041    4068   -4059   -4071       2
    4023    4056   -4044   -4062       2    4017    4020   -4035   -4053       2
    4008    4014   -4026   -4050       2    4005    4044   -4023   -4047       2
    4002    4035   -4017   -4038       2    4002    4026   -4014   -4032       2
    3999    4026   -4008   -4029       2    3996    4008   -3999   -4011       2
    4191    4194   -4200   -4209       2    4185    4200   -4194   -4206       2
    4182    4200   -4191   -4203       2    4173    4194   -4185   -4197       2
    4167    4182   -4176   -4188       2    4149    4176   -4167   -4179       2
    4131    4164   -4152   -4170       2    4125    4128   -4143   -4161       2
    4116    4122   -4134   -4158       2    4113    4152   -4131   -4155       2
    4110    4143   -4125   -4146       2    4110    4134   -4122   -4140       2
    4107    4134   -4116   -4137       2    4104    4116   -4107   -4119       2
    4299    4302   -4308   -4317       2    4293    4308   -4302   -4314       2
    4290    4308   -4299   -4311       2    4281    4302   -4293   -4305       2
    4275    4290   -4284   -4296       2    4257    4284   -4275   -4287       2
    4239    4272   -4260   -4278       2    4233    4236   -4251   -4269       2
    4224    4230   -4242   -4266       2    4221    4260   -4239   -4263       2
    4218    4251   -4233   -4254       2    4218    4242   -4230   -4248       2
    4215    4242   -4224   -4245       2    4212    4224   -4215   -4227       2
    4407    4410   -4416   -4425       2    4401    4416   -4410   -4422       2
    4398    4416   -4407   -4419       2    4389    4410   -4401   -4413       2
    4383    4398   -4392   -4404       2    4365    4392   -4383   -4395       2
    4347    4380   -4368   -4386       2    4341    4344   -4359   -4377       2
    4332    4338   -4350   -4374       2    4329    4368   -4347   -4371       2
    4326    4359   -4341   -4362       2    4326    4350   -4338   -4356       2
    4323    4350   -4332   -4353       2    4320    4332   -4323   -4335       2
    4515    4518   -4524   -4533       2    4509    4524   -4518   -4530       2
    4506    4524   -4515   -4527       2    4497    4518   -4509   -4521       2
    4491    4506   -4500   -4512       2    4473    4500   -4491   -4503       2
    4455    4488   -4476   -4494       2    4449    4452   -4467   -4485       2
    4440    4446   -4458   -4482       2    4437    4476   -4455   -4479       2
    4434    4467   -4449   -4470       2    4434    4458   -4446   -4464       2
    4431    4458   -4440   -4461       2    4428    4440   -4431   -4443       2
    4623    4626   -4632   -4641       2    4617    4632   -4626   -4638       2
    4614    4632   -4623   -4635       2    4605    4626   -4617   -4629       2
    4599    4614   -4608   -4620       2    4581    4608   -4599   -4611       2
    4563    4596   -4584   -4602       2    4557    4560   -4575   -4593       2
    4548    4554   -4566   -4590       2    4545    4584   -4563   -4587       2
    4542    4575   -4557   -4578       2    4542    4566   -4554   -4572       2
    4539    4566   -4548   -4569       2    4536    4548   -4539   -4551       2
    4731    4734   -4740   -4749       2    4725    4740   -4734   -4746       2
    4722    4740   -4731   -4743       2    4713    4734   -4725   -4737       2
    4707    4722   -4716   -4728       2    4689    4716   -4707   -4719       2
    4671    4704   -4692   -4710       2    4665    4668   -4683   -4701       2
    4656    4662   -4674   -4698       2    4653    4692   -4671   -4695       2
    4650    4683   -4665   -4686       2    4650    4674   -4662   -4680       2
    4647    4674   -4656   -4677       2    4644    4656   -4647   -4659       2
    4839    4842   -4848   -4857       2    4833    4848   -4842   -4854       2
    4830    4848   -4839   -4851       2    4821    4842   -4833   -4845       2
    4815    4830   -4824   -4836       2    4797    4824   -4815   -4827       2
    4779    4812   -4800   -4818       2    4773    4776   -4791   -4809       2
    4764    4770   -4782   -4806       2    4761    4800   -4779   -4803       2
    4758    4791   -4773   -4794       2    4758    4782   -4770   -4788       2
    4755    4782   -4764   -4785       2    4752    4764   -4755   -4767       2
    4947    4950   -4956   -4965       2    4941    4956   -4950   -4962       2
    4938    4956   -4947   -4959       2    4929    4950   -4941   -4953       2
    4923    4938   -4932   -4944       2    4905    4932   -4923   -4935       2
    4887    4920   -4908   -4926       2    4881    4884   -4899   -4917       2
    4872    4878   -4890   -4914       2    4869    4908   -4887   -4911       2
    4866    4899   -4881   -4902       2    4866    4890   -4878   -4896       2
    4863    4890   -4872   -4893       2    4860    4872   -4863   -4875       2
    5055    5058   -5064   -5073       2    5049    5064   -5058   -5070       2
    5046    5064   -5055   -5067       2    5037    5058   -5049   -5061       2
    5031    5046   -5040   -5052       2    5013    5040   -5031   -5043       2
    4995    5028   -5016   -5034       2    4989    4992   -5007   -5025       2
    4980    4986   -4998   -5022       2    4977    5016   -4995   -5019       2
    4974    5007   -4989   -5010       2    4974    4998   -4986   -5004       2
    4971    4998   -4980   -5001       2    4968    4980   -4971   -4983       2
    5163    5166   -5172   -5181       2    5157    5172   -5166   -5178       2
    5154    5172   -5163   -5175       2    5145    5166   -5157   -5169       2
    5139    5154   -5148   -5160       2    5121    5148   -5139   -5151       2
    5103    5136   -5124   -5142       2    5097    5100   -5115   -5133       2
    5088    5094   -5106   -5130       2    5085    5124   -5103   -5127       2
    5082    5115   -5097   -5118       2    5082    5106   -5094   -5112       2
    5079    5106   -5088   -5109       2    5076    5088   -5079   -5091       2
    5271    5274   -5280   -5289       2    5265    5280   -5274   -5286       2
    5262    5280   -5271   -5283       2    5253    5274   -5265   -5277       2
    5247    5262   -5256   -5268       2    5229    5256   -5247   -5259       2
    5211    5244   -5232   -5250       2    5205    5208   -5223   -5241       2
    5196    5202   -5214   -5238       2    5193    5232   -5211   -5235       2
    5190    5223   -5205   -5226       2    5190    5214   -5202   -5220       2
    5187    5214   -5196   -5217       2    5184    5196   -5187   -5199       2
    5379    5382   -5388   -5397       2    5373    5388   -5382   -5394       2
    5370    5388   -5379   -5391       2    5361    5382   -5373   -5385       2
    5355    5370   -5364   -5376       2    5337    5364   -5355   -5367       2
    5319    5352   -5340   -5358       2    5313    5316   -5331   -5349       2
    5304    5310   -5322   -5346       2    5301    5340   -5319   -5343       2
    5298    5331   -5313   -5334       2    5298    5322   -5310   -5328       2
    5295    5322   -5304   -5325       2    5292    5304   -5295   -5307       2
    5487    5490   -5496   -5505       2    5481    5496   -5490   -5502       2
    5478    5496   -5487   -5499       2    5469    5490   -5481   -5493       2
    5463    5478   -5472   -5484       2    5445    5472   -5463   -5475       2
    5427    5460   -5448   -5466       2    5421    5424   -5439   -5457       2
    5412    5418   -5430   -5454       2    5409    5448   -5427   -5451       2
    5406    5439   -5421   -5442       2    5406    5430   -5418   -5436       2
    5403    5430   -5412   -5433       2    5400    5412   -5403   -5415       2
    5595    5598   -5604   -5613       2    5589    5604   -5598   -5610       2
    5586    5604   -5595   -5607       2    5577    5598   -5589   -5601       2
    5571    5586   -5580   -5592       2    5553    5580   -5571   -5583       2
    5535    5568   -5556   -5574       2    5529    5532   -5547   -5565       2
    5520    5526   -5538   -5562       2    5517    5556   -5535   -5559       2
    5514    5547   -5529   -5550       2    5514    5538   -5526   -5544       2
    5511    5538   -5520   -5541       2    5508    5520   -5511   -5523       2
    5703    5706   -5712   -5721       2    5697    5712   -5706   -5718       2
    5694    5712   -5703   -5715       2    5685    5706   -5697   -5709       2
    5679    5694   -5688   -5700       2    5661    5688   -5679   -5691       2
    5643    5676   -5664   -5682       2    5637    5640   -5655   -5673       2
    5628    5634   -5646   -5670       2    5625    5664   -5643   -5667       2
    5622    5655   -5637   -5658       2    5622    5646   -5634   -5652       2
    5619    5646   -5628   -5649       2    5616    5628   -5619   -5631       2
    5811    5814   -5820   -5829       2    5805    5820   -5814   -5826       2
    5802    5820   -5811   -5823       2    5793    5814   -5805   -5817       2
    5787    5802   -5796   -5808       2    5769    5796   -5787   -5799       2
    5751    5784   -5772   -5790       2    5745    5748   -5763   -5781       2
    5736    5742   -5754   -5778       2    5733    5772   -5751   -5775       2
    5730    5763   -5745   -5766       2    5730    5754   -5742   -5760       2
    5727    5754   -5736   -5757       2    5724    5736   -5727   -5739       2
    5919    5922   -5928   -5937       2    5913    5928   -5922   -5934       2
    5910    5928   -5919   -5931       2    5901    5922   -5913   -5925       2
    5895    5910   -5904   -5916       2    5877    5904   -5895   -5907       2
    5859    5892   -5880   -5898       2    5853    5856   -5871   -5889       2
    5844    5850   -5862   -5886       2    5841    5880   -5859   -5883       2
    5838    5871   -5853   -5874       2    5838    5862   -5850   -5868       2
    5835    5862   -5844   -5865       2    5832    5844   -5835   -5847       2
    6027    6030   -6036   -6045       2    6021    6036   -6030   -6042       2
    6018    6036   -6027   -6039       2    6009    6030   -6021   -6033       2
    6003    6018   -6012   -6024       2    5985    6012   -6003   -6015       2
    5967    6000   -5988   -6006       2    5961    5964   -5979   -5997       2
    5952    5958   -5970   -5994       2    5949    5988   -5967   -5991       2
    5946    5979   -5961   -5982       2    5946    5970   -5958   -5976       2
    5943    5970   -5952   -5973       2    5940    5952   -5943   -5955       2
    6135    6138   -6144   -6153       2    6129    6144   -6138   -6150       2
    6126    6144   -6135   -6147       2    6117    6138   -6129   -6141       2
    6111    6126   -6120   -6132       2    6093    6120   -6111   -6123       2
    6075    6108   -6096   -6114       2    6069    6072   -6087   -6105       2
    6060    6066   -6078   -6102       2    6057    6096   -6075   -6099       2
    6054    6087   -6069   -6090       2    6054    6078   -6066   -6084       2
    6051    6078   -6060   -6081       2    6048    6060   -6051   -6063       2
    6243    6246   -6252   -6261       2    6237    6252   -6246   -6258       2
    6234    6252   -6243   -6255       2    6225    6246   -6237   -6249       2
    6219    6234   -6228   -6240       2    6201    6228   -6219   -6231       2
    6183    6216   -6204   -6222       2    6177    6180   -6195   -6213       2
    6168    6174   -6186   -6210       2    6165    6204   -6183   -6207       2
    6162    6195   -6177   -6198       2    6162    6186   -6174   -6192       2
    6159    6186   -6168   -6189       2    6156    6168   -6159   -6171       2
    6351    6354   -6360   -6369       2    6345    6360   -6354   -6366       2
    6342    6360   -6351   -6363       2    6333    6354   -6345   -6357       2
    6327    6342   -6336   -6348       2    6309    6336   -6327   -6339       2
    6291    6324   -6312   -6330       2    6285    6288   -6303   -6321       2
    6276    6282   -6294   -6318       2    6273    6312   -6291   -6315       2
    6270    6303   -6285   -6306       2    6270    6294   -6282   -6300       2
    6267    6294   -6276   -6297       2    6264    6276   -6267   -6279       2
    6459    6462   -6468   -6477       2    6453    6468   -6462   -6474       2
    6450    6468   -6459   -6471       2    6441    6462   -6453   -6465       2
    6435    6450   -6444   -6456       2    6417    6444   -6435   -6447       2
    6399    6432   -6420   -6438       2    6393    6396   -6411   -6429       2
    6384    6390   -6402   -6426       2    6381    6420   -6399   -6423       2
    6378    6411   -6393   -6414       2    6378    6402   -6390   -6408       2
    6375    6402   -6384   -6405       2    6372    6384   -6375   -6387       2
    6567    6570   -6576   -6585       2    6561    6576   -6570   -6582       2
    6558    6576   -6567   -6579       2    6549    6570   -6561   -6573       2
    6543    6558   -6552   -6564       2    6525    6552   -6543   -6555       2
    6507    6540   -6528   -6546       2    6501    6504   -6519   -6537       2
    6492    6498   -6510   -6534       2    6489    6528   -6507   -6531       2
    6486    6519   -6501   -6522       2    6486    6510   -6498   -6516       2
    6483    6510   -6492   -6513       2    6480    6492   -6483   -6495       2
    6675    6678   -6684   -6693       2    6669    6684   -6678   -6690       2
    6666    6684   -6675   -6687       2    6657    6678   -6669   -6681       2
    6651    6666   -6660   -6672       2    6633    6660   -6651   -6663       2
    6615    6648   -6636   -6654       2    6609    6612   -6627   -6645       2
    6600    6606   -6618   -6642       2    6597    6636   -6615   -6639       2
    6594    6627   -6609   -6630       2    6594    6618   -6606   -6624       2
    6591    6618   -6600   -6621       2    6588    6600   -6591   -6603       2
    6783    6786   -6792   -6801       2    6777    6792   -6786   -6798       2
    6774    6792   -6783   -6795       2    6765    6786   -6777   -6789       2
    6759    6774   -6768   -6780       2    6741    6768   -6759   -6771       2
    6723    6756   -6744   -6762       2    6717    6720   -6735   -6753       2
    6708    6714   -6726   -6750       2    6705    6744   -6723   -6747       2
    6702    6735   -6717   -6738       2    6702    6726   -6714   -6732       2
    6699    6726   -6708   -6729       2    6696    6708   -6699   -6711       2
    6891    6894   -6900   -6909       2    6885    6900   -6894   -6906       2
    6882    6900   -6891   -6903       2    6873    6894   -6885   -6897       2
    6867    6882   -6876   -6888       2    6849    6876   -6867   -6879       2
    6831    6864   -6852   -6870       2    6825    6828   -6843   -6861       2
    6816    6822   -6834   -6858       2    6813    6852   -6831   -6855       2
    6810    6843   -6825   -6846       2    6810    6834   -6822   -6840       2
    6807    6834   -6816   -6837       2    6804    6816   -6807   -6819       2
    6999    7002   -7008   -7017       2    6993    7008   -7002   -7014       2
    6990    7008   -6999   -7011       2    6981    7002   -6993   -7005       2
    6975    6990   -6984   -6996       2    6957    6984   -6975   -6987       2
    6939    6972   -6960   -6978       2    6933    6936   -6951   -6969       2
    6924    6930   -6942   -6966       2    6921    6960   -6939   -6963       2
    6918    6951   -6933   -6954       2    6918    6942   -6930   -6948       2
    6915    6942   -6924   -6945       2    6912    6924   -6915   -6927       2
    7107    7110   -7116   -7125       2    7101    7116   -7110   -7122       2
    7098    7116   -7107   -7119       2    7089    7110   -7101   -7113       2
    7083    7098   -7092   -7104       2    7065    7092   -7083   -7095       2
    7047    7080   -7068   -7086       2    7041    7044   -7059   -7077       2
    7032    7038   -7050   -7074       2    7029    7068   -7047   -7071       2
    7026    7059   -7041   -7062       2    7026    7050   -7038   -7056       2
    7023    7050   -7032   -7053       2    7020    7032   -7023   -7035       2
    7215    7218   -7224   -7233       2    7209    7224   -7218   -7230       2
    7206    7224   -7215   -7227       2    7197    7218   -7209   -7221       2
    7191    7206   -7200   -7212       2    7173    7200   -7191   -7203       2
    7155    7188   -7176   -7194       2    7149    7152   -7167   -7185       2
    7140    7146   -7158   -7182       2    7137    7176   -7155   -7179       2
    7134    7167   -7149   -7170       2    7134    7158   -7146   -7164       2
    7131    7158   -7140   -7161       2    7128    7140   -7131   -7143       2
    7323    7326   -7332   -7341       2    7317    7332   -7326   -7338       2
    7314    7332   -7323   -7335       2    7305    7326   -7317   -7329       2
    7299    7314   -7308   -7320       2    7281    7308   -7299   -7311       2
    7263    7296   -7284   -7302       2    7257    7260   -7275   -7293       2
    7248    7254   -7266   -7290       2    7245    7284   -7263   -7287       2
    7242    7275   -7257   -7278       2    7242    7266   -7254   -7272       2
    7239    7266   -7248   -7269       2    7236    7248   -7239   -7251       2
    7431    7434   -7440   -7449       2    7425    7440   -7434   -7446       2
    7422    7440   -7431   -7443       2    7413    7434   -7425   -7437       2
    7407    7422   -7416   -7428       2    7389    7416   -7407   -7419       2
    7371    7404   -7392   -7410       2    7365    7368   -7383   -7401       2
    7356    7362   -7374   -7398       2    7353    7392   -7371   -7395       2
    7350    7383   -7365   -7386       2    7350    7374   -7362   -7380       2
    7347    7374   -7356   -7377       2    7344    7356   -7347   -7359       2
    7539    7542   -7548   -7557       2    7533    7548   -7542   -7554       2
    7530    7548   -7539   -7551       2    7521    7542   -7533   -7545       2
    7515    7530   -7524   -7536       2    7497    7524   -7515   -7527       2
    7479    7512   -7500   -7518       2    7473    7476   -7491   -7509       2
    7464    7470   -7482   -7506       2    7461    7500   -7479   -7503       2
    7458    7491   -7473   -7494       2    7458    7482   -7470   -7488       2
    7455    7482   -7464   -7485       2    7452    7464   -7455   -7467       2
    7647    7650   -7656   -7665       2    7641    7656   -7650   -7662       2
    7638    7656   -7647   -7659       2    7629    7650   -7641   -7653       2
    7623    7638   -7632   -7644       2    7605    7632   -7623   -7635       2
    7587    7620   -7608   -7626       2    7581    7584   -7599   -7617       2
    7572    7578   -7590   -7614       2    7569    7608   -7587   -7611       2
    7566    7599   -7581   -7602       2    7566    7590   -7578   -7596       2
    7563    7590   -7572   -7593       2    7560    7572   -7563   -7575       2
    7755    7758   -7764   -7773       2    7749    7764   -7758   -7770       2
    7746    7764   -7755   -7767       2    7737    7758   -7749   -7761       2
    7731    7746   -7740   -7752       2    7713    7740   -7731   -7743       2
    7695    7728   -7716   -7734       2    7689    7692   -7707   -7725       2
    7680    7686   -7698   -7722       2    7677    7716   -7695   -7719       2
    7674    7707   -7689   -7710       2    7674    7698   -7686   -7704       2
    7671    7698   -7680   -7701       2    7668    7680   -7671   -7683       2
    7863    7866   -7872   -7881       2    7857    7872   -7866   -7878       2
    7854    7872   -7863   -7875       2    7845    7866   -7857   -7869       2
    7839    7854   -7848   -7860       2    7821    7848   -7839   -7851       2
    7803    7836   -7824   -7842       2    7797    7800   -7815   -7833       2
    7788    7794   -7806   -7830       2    7785    7824   -7803   -7827       2
    7782    7815   -7797   -7818       2    7782    7806   -7794   -7812       2
    7779    7806   -7788   -7809       2    7776    7788   -7779   -7791       2
    7971    7974   -7980   -7989       2    7965    7980   -7974   -7986       2
    7962    7980   -7971   -7983       2    7953    7974   -7965   -7977       2
    7947    7962   -7956   -7968       2    7929    7956   -7947   -7959       2
    7911    7944   -7932   -7950       2    7905    7908   -7923   -7941       2
    7896    7902   -7914   -7938       2    7893    7932   -7911   -7935       2
    7890    7923   -7905   -7926       2    7890    7914   -7902   -7920       2
    7887    7914   -7896   -7917       2    7884    7896   -7887   -7899       2
    8079    8082   -8088   -8097       2    8073    8088   -8082   -8094       2
    8070    8088   -8079   -8091       2    8061    8082   -8073   -8085       2
    8055    8070   -8064   -8076       2    8037    8064   -8055   -8067       2
    8019    8052   -8040   -8058       2    8013    8016   -8031   -8049       2
    8004    8010   -8022   -8046       2    8001    8040   -8019   -8043       2
    7998    8031   -8013   -8034       2    7998    8022   -8010   -8028       2
    7995    8022   -8004   -8025       2    7992    8004   -7995   -8007       2
    8187    8190   -8196   -8205       2    8181    8196   -8190   -8202       2
    8178    8196   -8187   -8199       2    8169    8190   -8181   -8193       2
    8163    8178   -8172   -8184       2    8145    8172   -8163   -8175       2
    8127    8160   -8148   -8166       2    8121    8124   -8139   -8157       2
    8112    8118   -8130   -8154       2    8109    8148   -8127   -8151       2
    8106    8139   -8121   -8142       2    8106    8130   -8118   -8136       2
    8103    8130   -8112   -8133       2    8100    8112   -8103   -8115       2
    8295    8298   -8304   -8313       2    8289    8304   -8298   -8310       2
    8286    8304   -8295   -8307       2    8277    8298   -8289   -8301       2
    8271    8286   -8280   -8292       2    8253    8280   -8271   -8283       2
    8235    8268   -8256   -8274       2    8229    8232   -8247   -8265       2
    8220    8226   -8238   -8262       2    8217    8256   -8235   -8259       2
    8214    8247   -8229   -8250       2    8214    8238   -8226   -8244       2
    8211    8238   -8220   -8241       2    8208    8220   -8211   -8223       2
    8403    8406   -8412   -8421       2    8397    8412   -8406   -8418       2
    8394    8412   -8403   -8415       2    8385    8406   -8397   -8409       2
    8379    8394   -8388   -8400       2    8361    8388   -8379   -8391       2
    8343    8376   -8364   -8382       2    8337    8340   -8355   -8373       2
    8328    8334   -8346   -8370       2    8325    8364   -8343   -8367       2
    8322    8355   -8337   -8358       2    8322    8346   -8334   -8352       2
    8319    8346   -8328   -8349       2    8316    8328   -8319   -8331       2
    8511    8514   -8520   -8529       2    8505    8520   -8514   -8526       2
    8502    8520   -8511   -8523       2    8493    8514   -8505   -8517       2
    8487    8502   -8496   -8508       2    8469    8496   -8487   -8499       2
    8451    8484   -8472   -8490       2    8445    8448   -8463   -8481       2
    8436    8442   -8454   -8478       2    8433    8472   -8451   -8475       2
    8430    8463   -8445   -8466       2    8430    8454   -8442   -8460       2
    8427    8454   -8436   -8457       2    8424    8436   -8427   -8439       2
    8619    8622   -8628   -8637       2    8613    8628   -8622   -8634       2
    8610    8628   -8619   -8631       2    8601    8622   -8613   -8625       2
    8595    8610   -8604   -8616       2    8577    8604   -8595   -8607       2
    8559    8592   -8580   -8598       2    8553    8556   -8571   -8589       2
    8544    8550   -8562   -8586       2    8541    8580   -8559   -8583       2
    8538    8571   -8553   -8574       2    8538    8562   -8550   -8568       2
    8535    8562   -8544   -8565       2    8532    8544   -8535   -8547       2
    8727    8730   -8736   -8745       2    8721    8736   -8730   -8742       2
    8718    8736   -8727   -8739       2    8709    8730   -8721   -8733       2
    8703    8718   -8712   -8724       2    8685    8712   -8703   -8715       2
    8667    8700   -8688   -8706       2    8661    8664   -8679   -8697       2
    8652    8658   -8670   -8694       2    8649    8688   -8667   -8691       2
    8646    8679   -8661   -8682       2    8646    8670   -8658   -8676       2
    8643    8670   -8652   -8673       2    8640    8652   -8643   -8655       2
    8835    8838   -8844   -8853       2    8829    8844   -8838   -8850       2
    8826    8844   -8835   -8847       2    8817    8838   -8829   -8841       2
    8811    8826   -8820   -8832       2    8793    8820   -8811   -8823       2
    8775    8808   -8796   -8814       2    8769    8772   -8787   -8805       2
    8760    8766   -8778   -8802       2    8757    8796   -8775   -8799       2
    8754    8787   -8769   -8790       2    8754    8778   -8766   -8784       2
    8751    8778   -8760   -8781       2    8748    8760   -8751   -8763       2
    8943    8946   -8952   -8961       2    8937    8952   -8946   -8958       2
    8934    8952   -8943   -8955       2    8925    8946   -8937   -8949       2
    8919    8934   -8928   -8940       2    8901    8928   -8919   -8931       2
    8883    8916   -8904   -8922       2    8877    8880   -8895   -8913       2
    8868    8874   -8886   -8910       2    8865    8904   -8883   -8907       2
    8862    8895   -8877   -8898       2    8862    8886   -8874   -8892       2
    8859    8886   -8868   -8889       2    8856    8868   -8859   -8871       2
    9051    9054   -9060   -9069       2    9045    9060   -9054   -9066       2
    9042    9060   -9051   -9063       2    9033    9054   -9045   -9057       2
    9027    9042   -9036   -9048       2    9009    9036   -9027   -9039       2
    8991    9024   -9012   -9030       2    8985    8988   -9003   -9021       2
    8976    8982   -8994   -9018       2    8973    9012   -8991   -9015       2
    8970    9003   -8985   -9006       2    8970    8994   -8982   -9000       2
    8967    8994   -8976   -8997       2    8964    8976   -8967   -8979       2
    9159    9162   -9168   -9177       2    9153    9168   -9162   -9174       2
    9150    9168   -9159   -9171       2    9141    9162   -9153   -9165       2
    9135    9150   -9144   -9156       2    9117    9144   -9135   -9147       2
    9099    9132   -9120   -9138       2    9093    9096   -9111   -9129       2
    9084    9090   -9102   -9126       2    9081    9120   -9099   -9123       2
    9078    9111   -9093   -9114       2    9078    9102   -9090   -9108       2
    9075    9102   -9084   -9105       2    9072    9084   -9075   -9087       2
    9267    9270   -9276   -9285       2    9261    9276   -9270   -9282       2
    9258    9276   -9267   -9279       2    9249    9270   -9261   -9273       2
    9243    9258   -9252   -9264       2    9225    9252   -9243   -9255       2
    9207    9240   -9228   -9246       2    9201    9204   -9219   -9237       2
    9192    9198   -9210   -9234       2    9189    9228   -9207   -9231       2
    9186    9219   -9201   -9222       2    9186    9210   -9198   -9216       2
    9183    9210   -9192   -9213       2    9180    9192   -9183   -9195       2
    9375    9378   -9384   -9393       2    9369    9384   -9378   -9390       2
    9366    9384   -9375   -9387       2    9357    9378   -9369   -9381       2
    9351    9366   -9360   -9372       2    9333    9360   -9351   -9363       2
    9315    9348   -9336   -9354       2    9309    9312   -9327   -9345       2
    9300    9306   -9318   -9342       2    9297    9336   -9315   -9339       2
    9294    9327   -9309   -9330       2    9294    9318   -9306   -9324       2
    9291    9318   -9300   -9321       2    9288    9300   -9291   -9303       2
    9483    9486   -9492   -9501       2    9477    9492   -9486   -9498       2
    9474    9492   -9483   -9495       2    9465    9486   -9477   -9489       2
    9459    9474   -9468   -9480       2    9441    9468   -9459   -9471       2
    9423    9456   -9444   -9462       2    9417    9420   -9435   -9453       2
    9408    9414   -9426   -9450       2    9405    9444   -9423   -9447       2
    9402    9435   -9417   -9438       2    9402    9426   -9414   -9432       2
    9399    9426   -9408   -9429       2    9396    9408   -9399   -9411       2
    9591    9594   -9600   -9609       2    9585    9600   -9594   -9606       2
    9582    9600   -9591   -9603       2    9573    9594   -9585   -9597       2
    9567    9582   -9576   -9588       2    9549    9576   -9567   -9579       2
    9531    9564   -9552   -9570       2    9525    9528   -9543   -9561       2
    9516    9522   -9534   -9558       2    9513    9552   -9531   -9555       2
    9510    9543   -9525   -9546       2    9510    9534   -9522   -9540       2
    9507    9534   -9516   -9537       2    9504    9516   -9507   -9519       2
    9699    9702   -9708   -9717       2    9693    9708   -9702   -9714       2
    9690    9708   -9699   -9711       2    9681    9702   -9693   -9705       2
    9675    9690   -9684   -9696       2    9657    9684   -9675   -9687       2
    9639    9672   -9660   -9678       2    9633    9636   -9651   -9669       2
    9624    9630   -9642   -9666       2    9621    9660   -9639   -9663       2
    9618    9651   -9633   -9654       2    9618    9642   -9630   -9648       2
    9615    9642   -9624   -9645       2    9612    9624   -9615   -9627       2
    9807    9810   -9816   -9825       2    9801    9816   -9810   -9822       2
    9798    9816   -9807   -9819       2    9789    9810   -9801   -9813       2
    9783    9798   -9792   -9804       2    9765    9792   -9783   -9795       2
    9747    9780   -9768   -9786       2    9741    9744   -9759   -9777       2
    9732    9738   -9750   -9774       2    9729    9768   -9747   -9771       2
    9726    9759   -9741   -9762       2    9726    9750   -9738   -9756       2
    9723    9750   -9732   -9753       2    9720    9732   -9723   -9735       2
    9915    9918   -9924   -9933       2    9909    9924   -9918   -9930       2
    9906    9924   -9915   -9927       2    9897    9918   -9909   -9921       2
    9891    9906   -9900   -9912       2    9873    9900   -9891   -9903       2
    9855    9888   -9876   -9894       2    9849    9852   -9867   -9885       2
    9840    9846   -9858   -9882       2    9837    9876   -9855   -9879       2
    9834    9867   -9849   -9870       2    9834    9858   -9846   -9864       2
    9831    9858   -9840   -9861       2    9828    9840   -9831   -9843       2
   10023   10026  -10032  -10041       2   10017   10032  -10026  -10038       2
   10014   10032  -10023  -10035       2   10005   10026  -10017  -10029       2
    9999   10014  -10008  -10020       2    9981   10008   -9999  -10011       2
    9963    9996   -9984  -10002       2    9957    9960   -9975   -9993       2
    9948    9954   -9966   -9990       2    9945    9984   -9963   -9987       2
    9942    9975   -9957   -9978       2    9942    9966   -9954   -9972       2
    9939    9966   -9948   -9969       2    9936    9948   -9939   -9951       2
   10131   10134  -10140  -10149       2   10125   10140  -10134  -10146       2
   10122   10140  -10131  -10143       2   10113   10134  -10125  -10137       2
   10107   10122  -10116  -10128       2   10089   10116  -10107  -10119       2
   10071   10104  -10092  -10110       2   10065   10068  -10083  -10101       2
   10056   10062  -10074  -10098       2   10053   10092  -10071  -10095       2
   10050   10083  -10065  -10086       2   10050   10074  -10062  -10080       2
   10047   10074  -10056  -10077       2   10044   10056  -10047  -10059       2
   10239   10242  -10248  -10257       2   10233   10248  -10242  -10254       2
   10230   10248  -10239  -10251       2   10221   10242  -10233  -10245       2
   10215   10230  -10224  -10236       2   10197   10224  -10215  -10227       2
   10179   10212  -10200  -10218       2   10173   10176  -10191  -10209       2
   10164   10170  -10182  -10206       2   10161   10200  -10179  -10203       2
   10158   10191  -10173  -10194       2   10158   10182  -10170  -10188       2
   10155   10182  -10164  -10185       2   10152   10164  -10155  -10167       2
   10347   10350  -10356  -10365       2   10341   10356  -10350  -10362       2
   10338   10356  -10347  -10359       2   10329   10350  -10341  -10353       2
   10323   10338  -10332  -10344       2   10305   10332  -10323  -10335       2
   10287   10320  -10308  -10326       2   10281   10284  -10299  -10317       2
   10272   10278  -10290  -10314       2   10269   10308  -10287  -10311       2
   10266   10299  -10281  -10302       2   10266   10290  -10278  -10296       2
   10263   10290  -10272  -10293       2   10260   10272  -10263  -10275       2
   10455   10458  -10464  -10473       2   10449   10464  -10458  -10470       2
   10446   10464  -10455  -10467       2   10437   10458  -10449  -10461       2
   10431   10446  -10440  -10452       2   10413   10440  -10431  -10443       2
   10395   10428  -10416  -10434       2   10389   10392  -10407  -10425       2
   10380   10386  -10398  -10422       2   10377   10416  -10395  -10419       2
   10374   10407  -10389  -10410       2   10374   10398  -10386  -10404       2
   10371   10398  -10380  -10401       2   10368   10380  -10371  -10383       2
   10563   10566  -10572  -10581       2   10557   10572  -10566  -10578       2
   10554   10572  -10563  -10575       2   10545   10566  -10557  -10569       2
   10539   10554  -10548  -10560       2   10521   10548  -10539  -10551       2
   10503   10536  -10524  -10542       2   10497   10500  -10515  -10533       2
   10488   10494  -10506  -10530       2   10485   10524  -10503  -10527       2
   10482   10515  -10497  -10518       2   10482   10506  -10494  -10512       2
   10479   10506  -10488  -10509       2   10476   10488  -10479  -10491       2
   10671   10674  -10680  -10689       2   10665   10680  -10674  -10686       2
   10662   10680  -10671  -10683       2   10653   10674  -10665  -10677       2
   10647   10662  -10656  -10668       2   10629   10656  -10647  -10659       2
   10611   10644  -10632  -10650       2   10605   10608  -10623  -10641       2
   10596   10602  -10614  -10638       2   10593   10632  -10611  -10635       2
   10590   10623  -10605  -10626       2   10590   10614  -10602  -10620       2
   10587   10614  -10596  -10617       2   10584   10596  -10587  -10599       2
   10779   10782  -10788  -10797       2   10773   10788  -10782  -10794       2
   10770   10788  -10779  -10791       2   10761   10782  -10773  -10785       2
   10755   10770  -10764  -10776       2   10737   10764  -10755  -10767       2
   10719   10752  -10740  -10758       2   10713   10716  -10731  -10749       2
   10704   10710  -10722  -10746       2   10701   10740  -10719  -10743       2
   10698   10731  -10713  -10734       2   10698   10722  -10710  -10728       2
   10695   10722  -10704  -10725       2   10692   10704  -10695  -10707       2
   10887   10890  -10896  -10905       2   10881   10896  -10890  -10902       2
   10878   10896  -10887  -10899       2   10869   10890  -10881  -10893       2
   10863   10878  -10872  -10884       2   10845   10872  -10863  -10875       2
   10827   10860  -10848  -10866       2   10821   10824  -10839  -10857       2
   10812   10818  -10830  -10854       2   10809   10848  -10827  -10851       2
   10806   10839  -10821  -10842       2   10806   10830  -10818  -10836       2
   10803   10830  -10812  -10833       2   10800   10812  -10803  -10815       2
   10995   10998  -11004  -11013       2   10989   11004  -10998  -11010       2
   10986   11004  -10995  -11007       2   10977   10998  -10989  -11001       2
   10971   10986  -10980  -10992       2   10953   10980  -10971  -10983       2
   10935   10968  -10956  -10974       2   10929   10932  -10947  -10965       2
   10920   10926  -10938  -10962       2   10917   10956  -10935  -10959       2
   10914   10947  -10929  -10950       2   10914   10938  -10926  -10944       2
   10911   10938  -10920  -10941       2   10908   10920  -10911  -10923       2
   11103   11106  -11112  -11121       2   11097   11112  -11106  -11118       2
   11094   11112  -11103  -11115       2   11085   11106  -11097  -11109       2
   11079   11094  -11088  -11100       2   11061   11088  -11079  -11091       2
   11043   11076  -11064  -11082       2   11037   11040  -11055  -11073       2
   11028   11034  -11046  -11070       2   11025   11064  -11043  -11067       2
   11022   11055  -11037  -11058       2   11022   11046  -11034  -11052       2
   11019   11046  -11028  -11049       2   11016   11028  -11019  -11031       2
   11211   11214  -11220  -11229       2   11205   11220  -11214  -11226       2
   11202   11220  -11211  -11223       2   11193   11214  -11205  -11217       2
   11187   11202  -11196  -11208       2   11169   11196  -11187  -11199       2
   11151   11184  -11172  -11190       2   11145   11148  -11163  -11181       2
   11136   11142  -11154  -11178       2   11133   11172  -11151  -11175       2
   11130   11163  -11145  -11166       2   11130   11154  -11142  -11160       2
   11127   11154  -11136  -11157       2   11124   11136  -11127  -11139       2
   11319   11322  -11328  -11337       2   11313   11328  -11322  -11334       2
   11310   11328  -11319  -11331       2   11301   11322  -11313  -11325       2
   11295   11310  -11304  -11316       2   11277   11304  -11295  -11307       2
   11259   11292  -11280  -11298       2   11253   11256  -11271  -11289       2
   11244   11250  -11262  -11286       2   11241   11280  -11259  -11283       2
   11238   11271  -11253  -11274       2   11238   11262  -11250  -11268       2
   11235   11262  -11244  -11265       2   11232   11244  -11235  -11247       2
   11427   11430  -11436  -11445       2   11421   11436  -11430  -11442       2
   11418   11436  -11427  -11439       2   11409   11430  -11421  -11433       2
   11403   11418  -11412  -11424       2   11385   11412  -11403  -11415       2
   11367   11400  -11388  -11406       2   11361   11364  -11379  -11397       2
   11352   11358  -11370  -11394       2   11349   11388  -11367  -11391       2
   11346   11379  -11361  -11382       2   11346   11370  -11358  -11376       2
   11343   11370  -11352  -11373       2   11340   11352  -11343  -11355       2
   11535   11538  -11544  -11553       2   11529   11544  -11538  -11550       2
   11526   11544  -11535  -11547       2   11517   11538  -11529  -11541       2
   11511   11526  -11520  -11532       2   11493   11520  -11511  -11523       2
   11475   11508  -11496  -11514       2   11469   11472  -11487  -11505       2
   11460   11466  -11478  -11502       2   11457   11496  -11475  -11499       2
   11454   11487  -11469  -11490       2   11454   11478  -11466  -11484       2
   11451   11478  -11460  -11481       2   11448   11460  -11451  -11463       2
   11643   11646  -11652  -11661       2   11637   11652  -11646  -11658       2
   11634   11652  -11643  -11655       2   11625   11646  -11637  -11649       2
   11619   11634  -11628  -11640       2   11601   11628  -11619  -11631       2
   11583   11616  -11604  -11622       2   11577   11580  -11595  -11613       2
   11568   11574  -11586  -11610       2   11565   11604  -11583  -11607       2
   11562   11595  -11577  -11598       2   11562   11586  -11574  -11592       2
   11559   11586  -11568  -11589       2   11556   11568  -11559  -11571       2
   11751   11754  -11760  -11769       2   11745   11760  -11754  -11766       2
   11742   11760  -11751  -11763       2   11733   11754  -11745  -11757       2
   11727   11742  -11736  -11748       2   11709   11736  -11727  -11739       2
   11691   11724  -11712  -11730       2   11685   11688  -11703  -11721       2
   11676   11682  -11694  -11718       2   11673   11712  -11691  -11715       2
   11670   11703  -11685  -11706       2   11670   11694  -11682  -11700       2
   11667   11694  -11676  -11697       2   11664   11676  -11667  -11679       2
   11859   11862  -11868  -11877       2   11853   11868  -11862  -11874       2
   11850   11868  -11859  -11871       2   11841   11862  -11853  -11865       2
   11835   11850  -11844  -11856       2   11817   11844  -11835  -11847       2
   11799   11832  -11820  -11838       2   11793   11796  -11811  -11829       2
   11784   11790  -11802  -11826       2   11781   11820  -11799  -11823       2
   11778   11811  -11793  -11814       2   11778   11802  -11790  -11808       2
   11775   11802  -11784  -11805       2   11772   11784  -11775  -11787       2
   11967   11970  -11976  -11985       2   11961   11976  -11970  -11982       2
   11958   11976  -11967  -11979       2   11949   11970  -11961  -11973       2
   11943   11958  -11952  -11964       2   11925   11952  -11943  -11955       2
   11907   11940  -11928  -11946       2   11901   11904  -11919  -11937       2
   11892   11898  -11910  -11934       2   11889   11928  -11907  -11931       2
   11886   11919  -11901  -11922       2   11886   11910  -11898  -11916       2
   11883   11910  -11892  -11913       2   11880   11892  -11883  -11895       2
   12075   12078  -12084  -12093       2   12069   12084  -12078  -12090       2
   12066   12084  -12075  -12087       2   12057   12078  -12069  -12081       2
   12051   12066  -12060  -12072       2   12033   12060  -12051  -12063       2
   12015   12048  -12036  -12054       2   12009   12012  -12027  -12045       2
   12000   12006  -12018  -12042       2   11997   12036  -12015  -12039       2
   11994   12027  -12009  -12030       2   11994   12018  -12006  -12024       2
   11991   12018  -12000  -12021       2   11988   12000  -11991  -12003       2
   12183   12186  -12192  -12201       2   12177   12192  -12186  -12198       2
   12174   12192  -12183  -12195       2   12165   12186  -12177  -12189       2
   12159   12174  -12168  -12180       2   12141   12168  -12159  -12171       2
   12123   12156  -12144  -12162       2   12117   12120  -12135  -12153       2
   12108   12114  -12126  -12150       2   12105   12144  -12123  -12147       2
   12102   12135  -12117  -12138       2   12102   12126  -12114  -12132       2
   12099   12126  -12108  -12129       2   12096   12108  -12099  -12111       2
   12291   12294  -12300  -12309       2   12285   12300  -12294  -12306       2
   12282   12300  -12291  -12303       2   12273   12294  -12285  -12297       2
   12267   12282  -12276  -12288       2   12249   12276  -12267  -12279       2
   12231   12264  -12252  -12270       2   12225   12228  -12243  -12261       2
   12216   12222  -12234  -12258       2   12213   12252  -12231  -12255       2
   12210   12243  -12225  -12246       2   12210   12234  -12222  -12240       2
   12207   12234  -12216  -12237       2   12204   12216  -12207  -12219       2
   12399   12402  -12408  -12417       2   12393   12408  -12402  -12414       2
   12390   12408  -12399  -12411       2   12381   12402  -12393  -12405       2
   12375   12390  -12384  -12396       2   12357   12384  -12375  -12387       2
   12339   12372  -12360  -12378       2   12333   12336  -12351  -12369       2
   12324   12330  -12342  -12366       2   12321   12360  -12339  -12363       2
   12318   12351  -12333  -12354       2   12318   12342  -12330  -12348       2
   12315   12342  -12324  -12345       2   12312   12324  -12315  -12327       2
   12507   12510  -12516  -12525       2   12501   12516  -12510  -12522       2
   12498   12516  -12507  -12519       2   12489   12510  -12501  -12513       2
   12483   12498  -12492  -12504       2   12465   12492  -12483  -12495       2
   12447   12480  -12468  -12486       2   12441   12444  -12459  -12477       2
   12432   12438  -12450  -12474       2   12429   12468  -12447  -12471       2
   12426   12459  -12441  -12462       2   12426   12450  -12438  -12456       2
   12423   12450  -12432  -12453       2   12420   12432  -12423  -12435       2
   12615   12618  -12624  -12633       2   12609   12624  -12618  -12630       2
   12606   12624  -12615  -12627       2   12597   12618  -12609  -12621       2
   12591   12606  -12600  -12612       2   12573   12600  -12591  -12603       2
   12555   12588  -12576  -12594       2   12549   12552  -12567  -12585       2
   12540   12546  -12558  -12582       2   12537   12576  -12555  -12579       2
   12534   12567  -12549  -12570       2   12534   12558  -12546  -12564       2
   12531   12558  -12540  -12561       2   12528   12540  -12531  -12543       2
   12723   12726  -12732  -12741       2   12717   12732  -12726  -12738       2
   12714   12732  -12723  -12735       2   12705   12726  -12717  -12729       2
   12699   12714  -12708  -12720       2   12681   12708  -12699  -12711       2
   12663   12696  -12684  -12702       2   12657   12660  -12675  -12693       2
   12648   12654  -12666  -12690       2   12645   12684  -12663  -12687       2
   12642   12675  -12657  -12678       2   12642   12666  -12654  -12672       2
   12639   12666  -12648  -12669       2   12636   12648  -12639  -12651       2
   12831   12834  -12840  -12849       2   12825   12840  -12834  -12846       2
   12822   12840  -12831  -12843       2   12813   12834  -12825  -12837       2
   12807   12822  -12816  -12828       2   12789   12816  -12807  -12819       2
   12771   12804  -12792  -12810       2   12765   12768  -12783  -12801       2
   12756   12762  -12774  -12798       2   12753   12792  -12771  -12795       2
   12750   12783  -12765  -12786       2   12750   12774  -12762  -12780       2
   12747   12774  -12756  -12777       2   12744   12756  -12747  -12759       2
   12939   12942  -12948  -12957       2   12933   12948  -12942  -12954       2
   12930   12948  -12939  -12951       2   12921   12942  -12933  -12945       2
   12915   12930  -12924  -12936       2   12897   12924  -12915  -12927       2
   12879   12912  -12900  -12918       2   12873   12876  -12891  -12909       2
   12864   12870  -12882  -12906       2   12861   12900  -12879  -12903       2
   12858   12891  -12873  -12894       2   12858   12882  -12870  -12888       2
   12855   12882  -12864  -12885       2   12852   12864  -12855  -12867       2
   13047   13050  -13056  -13065       2   13041   13056  -13050  -13062       2
   13038   13056  -13047  -13059       2   13029   13050  -13041  -13053       2
   13023   13038  -13032  -13044       2   13005   13032  -13023  -13035       2
   12987   13020  -13008  -13026       2   12981   12984  -12999  -13017       2
   12972   12978  -12990  -13014       2   12969   13008  -12987  -13011       2
   12966   12999  -12981  -13002       2   12966   12990  -12978  -12996       2
   12963   12990  -12972  -12993       2   12960   12972  -12963  -12975       2
   13155   13158  -13164  -13173       2   13149   13164  -13158  -13170       2
   13146   13164  -13155  -13167       2   13137   13158  -13149  -13161       2
   13131   13146  -13140  -13152       2   13113   13140  -13131  -13143       2
   13095   13128  -13116  -13134       2   13089   13092  -13107  -13125       2
   13080   13086  -13098  -13122       2   13077   13116  -13095  -13119       2
   13074   13107  -13089  -13110       2   13074   13098  -13086  -13104       2
   13071   13098  -13080  -13101       2   13068   13080  -13071  -13083       2
   13263   13266  -13272  -13281       2   13257   13272  -13266  -13278       2
   13254   13272  -13263  -13275       2   13245   13266  -13257  -13269       2
   13239   13254  -13248  -13260       2   13221   13248  -13239  -13251       2
   13203   13236  -13224  -13242       2   13197   13200  -13215  -13233       2
   13188   13194  -13206  -13230       2   13185   13224  -13203  -13227       2
   13182   13215  -13197  -13218       2   13182   13206  -13194  -13212       2
   13179   13206  -13188  -13209       2   13176   13188  -13179  -13191       2
   13371   13374  -13380  -13389       2   13365   13380  -13374  -13386       2
   13362   13380  -13371  -13383       2   13353   13374  -13365  -13377       2
   13347   13362  -13356  -13368       2   13329   13356  -13347  -13359       2
   13311   13344  -13332  -13350       2   13305   13308  -13323  -13341       2
   13296   13302  -13314  -13338       2   13293   13332  -13311  -13335       2
   13290   13323  -13305  -13326       2   13290   13314  -13302  -13320       2
   13287   13314  -13296  -13317       2   13284   13296  -13287  -13299       2
   13479   13482  -13488  -13497       2   13473   13488  -13482  -13494       2
   13470   13488  -13479  -13491       2   13461   13482  -13473  -13485       2
   13455   13470  -13464  -13476       2   13437   13464  -13455  -13467       2
   13419   13452  -13440  -13458       2   13413   13416  -13431  -13449       2
   13404   13410  -13422  -13446       2   13401   13440  -13419  -13443       2
   13398   13431  -13413  -13434       2   13398   13422  -13410  -13428       2
   13395   13422  -13404  -13425       2   13392   13404  -13395  -13407       2
   13587   13590  -13596  -13605       2   13581   13596  -13590  -13602       2
   13578   13596  -13587  -13599       2   13569   13590  -13581  -13593       2
   13563   13578  -13572  -13584       2   13545   13572  -13563  -13575       2
   13527   13560  -13548  -13566       2   13521   13524  -13539  -13557       2
   13512   13518  -13530  -13554       2   13509   13548  -13527  -13551       2
   13506   13539  -13521  -13542       2   13506   13530  -13518  -13536       2
   13503   13530  -13512  -13533       2   13500   13512  -13503  -13515       2
   13695   13698  -13704  -13713       2   13689   13704  -13698  -13710       2
   13686   13704  -13695  -13707       2   13677   13698  -13689  -13701       2
   13671   13686  -13680  -13692       2   13653   13680  -13671  -13683       2
   13635   13668  -13656  -13674       2   13629   13632  -13647  -13665       2
   13620   13626  -13638  -13662       2   13617   13656  -13635  -13659       2
   13614   13647  -13629  -13650       2   13614   13638  -13626  -13644       2
   13611   13638  -13620  -13641       2   13608   13620  -13611  -13623       2
   13803   13806  -13812  -13821       2   13797   13812  -13806  -13818       2
   13794   13812  -13803  -13815       2   13785   13806  -13797  -13809       2
   13779   13794  -13788  -13800       2   13761   13788  -13779  -13791       2
   13743   13776  -13764  -13782       2   13737   13740  -13755  -13773       2
   13728   13734  -13746  -13770       2   13725   13764  -13743  -13767       2
   13722   13755  -13737  -13758       2   13722   13746  -13734  -13752       2
   13719   13746  -13728  -13749       2   13716   13728  -13719  -13731       2
   13911   13914  -13920  -13929       2   13905   13920  -13914  -13926       2
   13902   13920  -13911  -13923       2   13893   13914  -13905  -13917       2
   13887   13902  -13896  -13908       2   13869   13896  -13887  -13899       2
   13851   13884  -13872  -13890       2   13845   13848  -13863  -13881       2
   13836   13842  -13854  -13878       2   13833   13872  -13851  -13875       2
   13830   13863  -13845  -13866       2   13830   13854  -13842  -13860       2
   13827   13854  -13836  -13857       2   13824   13836  -13827  -13839       2
   14019   14022  -14028  -14037       2   14013   14028  -14022  -14034       2
   14010   14028  -14019  -14031       2   14001   14022  -14013  -14025       2
   13995   14010  -14004  -14016       2   13977   14004  -13995  -14007       2
   13959   13992  -13980  -13998       2   13953   13956  -13971  -13989       2
   13944   13950  -13962  -13986       2   13941   13980  -13959  -13983       2
   13938   13971  -13953  -13974       2   13938   13962  -13950  -13968       2
   13935   13962  -13944  -13965       2   13932   13944  -13935  -13947       2
   14127   14130  -14136  -14145       2   14121   14136  -14130  -14142       2
   14118   14136  -14127  -14139       2   14109   14130  -14121  -14133       2
   14103   14118  -14112  -14124       2   14085   14112  -14103  -14115       2
   14067   14100  -14088  -14106       2   14061   14064  -14079  -14097       2
   14052   14058  -14070  -14094       2   14049   14088  -14067  -14091       2
   14046   14079  -14061  -14082       2   14046   14070  -14058  -14076       2
   14043   14070  -14052  -14073       2   14040   14052  -14043  -14055       2
   14235   14238  -14244  -14253       2   14229   14244  -14238  -14250       2
   14226   14244  -14235  -14247       2   14217   14238  -14229  -14241       2
   14211   14226  -14220  -14232       2   14193   14220  -14211  -14223       2
   14175   14208  -14196  -14214       2   14169   14172  -14187  -14205       2
   14160   14166  -14178  -14202       2   14157   14196  -14175  -14199       2
   14154   14187  -14169  -14190       2   14154   14178  -14166  -14184       2
   14151   14178  -14160  -14181       2   14148   14160  -14151  -14163       2
   14343   14346  -14352  -14361       2   14337   14352  -14346  -14358       2
   14334   14352  -14343  -14355       2   14325   14346  -14337  -14349       2
   14319   14334  -14328  -14340       2   14301   14328  -14319  -14331       2
   14283   14316  -14304  -14322       2   14277   14280  -14295  -14313       2
   14268   14274  -14286  -14310       2   14265   14304  -14283  -14307       2
   14262   14295  -14277  -14298       2   14262   14286  -14274  -14292       2
   14259   14286  -14268  -14289       2   14256   14268  -14259  -14271       2
   14451   14454  -14460  -14469       2   14445   14460  -14454  -14466       2
   14442   14460  -14451  -14463       2   14433   14454  -14445  -14457       2
   14427   14442  -14436  -14448       2   14409   14436  -14427  -14439       2
   14391   14424  -14412  -14430       2   14385   14388  -14403  -14421       2
   14376   14382  -14394  -14418       2   14373   14412  -14391  -14415       2
   14370   14403  -14385  -14406       2   14370   14394  -14382  -14400       2
   14367   14394  -14376  -14397       2   14364   14376  -14367  -14379       2
   14559   14562  -14568  -14577       2   14553   14568  -14562  -14574       2
   14550   14568  -14559  -14571       2   14541   14562  -14553  -14565       2
   14535   14550  -14544  -14556       2   14517   14544  -14535  -14547       2
   14499   14532  -14520  -14538       2   14493   14496  -14511  -14529       2
   14484   14490  -14502  -14526       2   14481   14520  -14499  -14523       2
   14478   14511  -14493  -14514       2   14478   14502  -14490  -14508       2
   14475   14502  -14484  -14505       2   14472   14484  -14475  -14487       2
   14667   14670  -14676  -14685       2   14661   14676  -14670  -14682       2
   14658   14676  -14667  -14679       2   14649   14670  -14661  -14673       2
   14643   14658  -14652  -14664       2   14625   14652  -14643  -14655       2
   14607   14640  -14628  -14646       2   14601   14604  -14619  -14637       2
   14592   14598  -14610  -14634       2   14589   14628  -14607  -14631       2
   14586   14619  -14601  -14622       2   14586   14610  -14598  -14616       2
   14583   14610  -14592  -14613       2   14580   14592  -14583  -14595       2
   14775   14778  -14784  -14793       2   14769   14784  -14778  -14790       2
   14766   14784  -14775  -14787       2   14757   14778  -14769  -14781       2
   14751   14766  -14760  -14772       2   14733   14760  -14751  -14763       2
   14715   14748  -14736  -14754       2   14709   14712  -14727  -14745       2
   14700   14706  -14718  -14742       2   14697   14736  -14715  -14739       2
   14694   14727  -14709  -14730       2   14694   14718  -14706  -14724       2
   14691   14718  -14700  -14721       2   14688   14700  -14691  -14703       2
   14883   14886  -14892  -14901       2   14877   14892  -14886  -14898       2
   14874   14892  -14883  -14895       2   14865   14886  -14877  -14889       2
   14859   14874  -14868  -14880       2   14841   14868  -14859  -14871       2
   14823   14856  -14844  -14862       2   14817   14820  -14835  -14853       2
   14808   14814  -14826  -14850       2   14805   14844  -14823  -14847       2
   14802   14835  -14817  -14838       2   14802   14826  -14814  -14832       2
   14799   14826  -14808  -14829       2   14796   14808  -14799  -14811       2
   14991   14994  -15000  -15009       2   14985   15000  -14994  -15006       2
   14982   15000  -14991  -15003       2   14973   14994  -14985  -14997       2
   14967   14982  -14976  -14988       2   14949   14976  -14967  -14979       2
   14931   14964  -14952  -14970       2   14925   14928  -14943  -14961       2
   14916   14922  -14934  -14958       2   14913   14952  -14931  -14955       2
   14910   14943  -14925  -14946       2   14910   14934  -14922  -14940       2
   14907   14934  -14916  -14937       2   14904   14916  -14907  -14919       2
   15099   15102  -15108  -15117       2   15093   15108  -15102  -15114       2
   15090   15108  -15099  -15111       2   15081   15102  -15093  -15105       2
   15075   15090  -15084  -15096       2   15057   15084  -15075  -15087       2
   15039   15072  -15060  -15078       2   15033   15036  -15051  -15069       2
   15024   15030  -15042  -15066       2   15021   15060  -15039  -15063       2
   15018   15051  -15033  -15054       2   15018   15042  -15030  -15048       2
   15015   15042  -15024  -15045       2   15012   15024  -15015  -15027       2
   15207   15210  -15216  -15225       2   15201   15216  -15210  -15222       2
   15198   15216  -15207  -15219       2   15189   15210  -15201  -15213       2
   15183   15198  -15192  -15204       2   15165   15192  -15183  -15195       2
   15147   15180  -15168  -15186       2   15141   15144  -15159  -15177       2
   15132   15138  -15150  -15174       2   15129   15168  -15147  -15171       2
   15126   15159  -15141  -15162       2   15126   15150  -15138  -15156       2
   15123   15150  -15132  -15153       2   15120   15132  -15123  -15135       2
   15315   15318  -15324  -15333       2   15309   15324  -15318  -15330       2
   15306   15324  -15315  -15327       2   15297   15318  -15309  -15321       2
   15291   15306  -15300  -15312       2   15273   15300  -15291  -15303       2
   15255   15288  -15276  -15294       2   15249   15252  -15267  -15285       2
   15240   15246  -15258  -15282       2   15237   15276  -15255  -15279       2
   15234   15267  -15249  -15270       2   15234   15258  -15246  -15264       2
   15231   15258  -15240  -15261       2   15228   15240  -15231  -15243       2
   15423   15426  -15432  -15441       2   15417   15432  -15426  -15438       2
   15414   15432  -15423  -15435       2   15405   15426  -15417  -15429       2
   15399   15414  -15408  -15420       2   15381   15408  -15399  -15411       2
   15363   15396  -15384  -15402       2   15357   15360  -15375  -15393       2
   15348   15354  -15366  -15390       2   15345   15384  -15363  -15387       2
   15342   15375  -15357  -15378       2   15342   15366  -15354  -15372       2
   15339   15366  -15348  -15369       2   15336   15348  -15339  -15351       2
   15531   15534  -15540  -15549       2   15525   15540  -15534  -15546       2
   15522   15540  -15531  -15543       2   15513   15534  -15525  -15537       2
   15507   15522  -15516  -15528       2   15489   15516  -15507  -15519       2
   15471   15504  -15492  -15510       2   15465   15468  -15483  -15501       2
   15456   15462  -15474  -15498       2   15453   15492  -15471  -15495       2
   15450   15483  -15465  -15486       2   15450   15474  -15462  -15480       2
   15447   15474  -15456  -15477       2   15444   15456  -15447  -15459       2
   15639   15642  -15648  -15657       2   15633   15648  -15642  -15654       2
   15630   15648  -15639  -15651       2   15621   15642  -15633  -15645       2
   15615   15630  -15624  -15636       2   15597   15624  -15615  -15627       2
   15579   15612  -15600  -15618       2   15573   15576  -15591  -15609       2
   15564   15570  -15582  -15606       2   15561   15600  -15579  -15603       2
   15558   15591  -15573  -15594       2   15558   15582  -15570  -15588       2
   15555   15582  -15564  -15585       2   15552   15564  -15555  -15567       2
   15747   15750  -15756  -15765       2   15741   15756  -15750  -15762       2
   15738   15756  -15747  -15759       2   15729   15750  -15741  -15753       2
   15723   15738  -15732  -15744       2   15705   15732  -15723  -15735       2
   15687   15720  -15708  -15726       2   15681   15684  -15699  -15717       2
   15672   15678  -15690  -15714       2   15669   15708  -15687  -15711       2
   15666   15699  -15681  -15702       2   15666   15690  -15678  -15696       2
   15663   15690  -15672  -15693       2   15660   15672  -15663  -15675       2
   15855   15858  -15864  -15873       2   15849   15864  -15858  -15870       2
   15846   15864  -15855  -15867       2   15837   15858  -15849  -15861       2
   15831   15846  -15840  -15852       2   15813   15840  -15831  -15843       2
   15795   15828  -15816  -15834       2   15789   15792  -15807  -15825       2
   15780   15786  -15798  -15822       2   15777   15816  -15795  -15819       2
   15774   15807  -15789  -15810       2   15774   15798  -15786  -15804       2
   15771   15798  -15780  -15801       2   15768   15780  -15771  -15783       2
   15963   15966  -15972  -15981       2   15957   15972  -15966  -15978       2
   15954   15972  -15963  -15975       2   15945   15966  -15957  -15969       2
   15939   15954  -15948  -15960       2   15921   15948  -15939  -15951       2
   15903   15936  -15924  -15942       2   15897   15900  -15915  -15933       2
   15888   15894  -15906  -15930       2   15885   15924  -15903  -15927       2
   15882   15915  -15897  -15918       2   15882   15906  -15894  -15912       2
   15879   15906  -15888  -15909       2   15876   15888  -15879  -15891       2
   16071   16074  -16080  -16089       2   16065   16080  -16074  -16086       2
   16062   16080  -16071  -16083       2   16053   16074  -16065  -16077       2
   16047   16062  -16056  -16068       2   16029   16056  -16047  -16059       2
   16011   16044  -16032  -16050       2   16005   16008  -16023  -16041       2
   15996   16002  -16014  -16038       2   15993   16032  -16011  -16035       2
   15990   16023  -16005  -16026       2   15990   16014  -16002  -16020       2
   15987   16014  -15996  -16017       2   15984   15996  -15987  -15999       2
   16179   16182  -16188  -16197       2   16173   16188  -16182  -16194       2
   16170   16188  -16179  -16191       2   16161   16182  -16173  -16185       2
   16155   16170  -16164  -16176       2   16137   16164  -16155  -16167       2
   16119   16152  -16140  -16158       2   16113   16116  -16131  -16149       2
   16104   16110  -16122  -16146       2   16101   16140  -16119  -16143       2
   16098   16131  -16113  -16134       2   16098   16122  -16110  -16128       2
   16095   16122  -16104  -16125       2   16092   16104  -16095  -16107       2
   16287   16290  -16296  -16305       2   16281   16296  -16290  -16302       2
   16278   16296  -16287  -16299       2   16269   16290  -16281  -16293       2
   16263   16278  -16272  -16284       2   16245   16272  -16263  -16275       2
   16227   16260  -16248  -16266       2   16221   16224  -16239  -16257       2
   16212   16218  -16230  -16254       2   16209   16248  -16227  -16251       2
   16206   16239  -16221  -16242       2   16206   16230  -16218  -16236       2
   16203   16230  -16212  -16233       2   16200   16212  -16203  -16215       2
   16395   16398  -16404  -16413       2   16389   16404  -16398  -16410       2
   16386   16404  -16395  -16407       2   16377   16398  -16389  -16401       2
   16371   16386  -16380  -16392       2   16353   16380  -16371  -16383       2
   16335   16368  -16356  -16374       2   16329   16332  -16347  -16365       2
   16320   16326  -16338  -16362       2   16317   16356  -16335  -16359       2
   16314   16347  -16329  -16350       2   16314   16338  -16326  -16344       2
   16311   16338  -16320  -16341       2   16308   16320  -16311  -16323       2
   16503   16506  -16512  -16521       2   16497   16512  -16506  -16518       2
   16494   16512  -16503  -16515       2   16485   16506  -16497  -16509       2
   16479   16494  -16488  -16500       2   16461   16488  -16479  -16491       2
   16443   16476  -16464  -16482       2   16437   16440  -16455  -16473       2
   16428   16434  -16446  -16470       2   16425   16464  -16443  -16467       2
   16422   16455  -16437  -16458       2   16422   16446  -16434  -16452       2
   16419   16446  -16428  -16449       2   16416   16428  -16419  -16431       2
   16611   16614  -16620  -16629       2   16605   16620  -16614  -16626       2
   16602   16620  -16611  -16623       2   16593   16614  -16605  -16617       2
   16587   16602  -16596  -16608       2   16569   16596  -16587  -16599       2
   16551   16584  -16572  -16590       2   16545   16548  -16563  -16581       2
   16536   16542  -16554  -16578       2   16533   16572  -16551  -16575       2
   16530   16563  -16545  -16566       2   16530   16554  -16542  -16560       2
   16527   16554  -16536  -16557       2   16524   16536  -16527  -16539       2
   16719   16722  -16728  -16737       2   16713   16728  -16722  -16734       2
   16710   16728  -16719  -16731       2   16701   16722  -16713  -16725       2
   16695   16710  -16704  -16716       2   16677   16704  -16695  -16707       2
   16659   16692  -16680  -16698       2   16653   16656  -16671  -16689       2
   16644   16650  -16662  -16686       2   16641   16680  -16659  -16683       2
   16638   16671  -16653  -16674       2   16638   16662  -16650  -16668       2
   16635   16662  -16644  -16665       2   16632   16644  -16635  -16647       2
   16827   16830  -16836  -16845       2   16821   16836  -16830  -16842       2
   16818   16836  -16827  -16839       2   16809   16830  -16821  -16833       2
   16803   16818  -16812  -16824       2   16785   16812  -16803  -16815       2
   16767   16800  -16788  -16806       2   16761   16764  -16779  -16797       2
   16752   16758  -16770  -16794       2   16749   16788  -16767  -16791       2
   16746   16779  -16761  -16782       2   16746   16770  -16758  -16776       2
   16743   16770  -16752  -16773       2   16740   16752  -16743  -16755       2
   16935   16938  -16944  -16953       2   16929   16944  -16938  -16950       2
   16926   16944  -16935  -16947       2   16917   16938  -16929  -16941       2
   16911   16926  -16920  -16932       2   16893   16920  -16911  -16923       2
   16875   16908  -16896  -16914       2   16869   16872  -16887  -16905       2
   16860   16866  -16878  -16902       2   16857   16896  -16875  -16899       2
   16854   16887  -16869  -16890       2   16854   16878  -16866  -16884       2
   16851   16878  -16860  -16881       2   16848   16860  -16851  -16863       2
   17043   17046  -17052  -17061       2   17037   17052  -17046  -17058       2
   17034   17052  -17043  -17055       2   17025   17046  -17037  -17049       2
   17019   17034  -17028  -17040       2   17001   17028  -17019  -17031       2
   16983   17016  -17004  -17022       2   16977   16980  -16995  -17013       2
   16968   16974  -16986  -17010       2   16965   17004  -16983  -17007       2
   16962   16995  -16977  -16998       2   16962   16986  -16974  -16992       2
   16959   16986  -16968  -16989       2   16956   16968  -16959  -16971       2
   17151   17154  -17160  -17169       2   17145   17160  -17154  -17166       2
   17142   17160  -17151  -17163       2   17133   17154  -17145  -17157       2
   17127   17142  -17136  -17148       2   17109   17136  -17127  -17139       2
   17091   17124  -17112  -17130       2   17085   17088  -17103  -17121       2
   17076   17082  -17094  -17118       2   17073   17112  -17091  -17115       2
   17070   17103  -17085  -17106       2   17070   17094  -17082  -17100       2
   17067   17094  -17076  -17097       2   17064   17076  -17067  -17079       2
   17259   17262  -17268  -17277       2   17253   17268  -17262  -17274       2
   17250   17268  -17259  -17271       2   17241   17262  -17253  -17265       2
   17235   17250  -17244  -17256       2   17217   17244  -17235  -17247       2
   17199   17232  -17220  -17238       2   17193   17196  -17211  -17229       2
   17184   17190  -17202  -17226       2   17181   17220  -17199  -17223       2
   17178   17211  -17193  -17214       2   17178   17202  -17190  -17208       2
   17175   17202  -17184  -17205       2   17172   17184  -17175  -17187       2
   17367   17370  -17376  -17385       2   17361   17376  -17370  -17382       2
   17358   17376  -17367  -17379       2   17349   17370  -17361  -17373       2
   17343   17358  -17352  -17364       2   17325   17352  -17343  -17355       2
   17307   17340  -17328  -17346       2   17301   17304  -17319  -17337       2
   17292   17298  -17310  -17334       2   17289   17328  -17307  -17331       2
   17286   17319  -17301  -17322       2   17286   17310  -17298  -17316       2
   17283   17310  -17292  -17313       2   17280   17292  -17283  -17295       2
   17475   17478  -17484  -17493       2   17469   17484  -17478  -17490       2
   17466   17484  -17475  -17487       2   17457   17478  -17469  -17481       2
   17451   17466  -17460  -17472       2   17433   17460  -17451  -17463       2
   17415   17448  -17436  -17454       2   17409   17412  -17427  -17445       2
   17400   17406  -17418  -17442       2   17397   17436  -17415  -17439       2
   17394   17427  -17409  -17430       2   17394   17418  -17406  -17424       2
   17391   17418  -17400  -17421       2   17388   17400  -17391  -17403       2
   17583   17586  -17592  -17601       2   17577   17592  -17586  -17598       2
   17574   17592  -17583  -17595       2   17565   17586  -17577  -17589       2
   17559   17574  -17568  -17580       2   17541   17568  -17559  -17571       2
   17523   17556  -17544  -17562       2   17517   17520  -17535  -17553       2
   17508   17514  -17526  -17550       2   17505   17544  -17523  -17547       2
   17502   17535  -17517  -17538       2   17502   17526  -17514  -17532       2
   17499   17526  -17508  -17529       2   17496   17508  -17499  -17511       2
   17691   17694  -17700  -17709       2   17685   17700  -17694  -17706       2
   17682   17700  -17691  -17703       2   17673   17694  -17685  -17697       2
   17667   17682  -17676  -17688       2   17649   17676  -17667  -17679       2
   17631   17664  -17652  -17670       2   17625   17628  -17643  -17661       2
   17616   17622  -17634  -17658       2   17613   17652  -17631  -17655       2
   17610   17643  -17625  -17646       2   17610   17634  -17622  -17640       2
   17607   17634  -17616  -17637       2   17604   17616  -17607  -17619       2
   17799   17802  -17808  -17817       2   17793   17808  -17802  -17814       2
   17790   17808  -17799  -17811       2   17781   17802  -17793  -17805       2
   17775   17790  -17784  -17796       2   17757   17784  -17775  -17787       2
   17739   17772  -17760  -17778       2   17733   17736  -17751  -17769       2
   17724   17730  -17742  -17766       2   17721   17760  -17739  -17763       2
   17718   17751  -17733  -17754       2   17718   17742  -17730  -17748       2
   17715   17742  -17724  -17745       2   17712   17724  -17715  -17727       2
   17907   17910  -17916  -17925       2   17901   17916  -17910  -17922       2
   17898   17916  -17907  -17919       2   17889   17910  -17901  -17913       2
   17883   17898  -17892  -17904       2   17865   17892  -17883  -17895       2
   17847   17880  -17868  -17886       2   17841   17844  -17859  -17877       2
   17832   17838  -17850  -17874       2   17829   17868  -17847  -17871       2
   17826   17859  -17841  -17862       2   17826   17850  -17838  -17856       2
   17823   17850  -17832  -17853       2   17820   17832  -17823  -17835       2
   18015   18018  -18024  -18033       2   18009   18024  -18018  -18030       2
   18006   18024  -18015  -18027       2   17997   18018  -18009  -18021       2
   17991   18006  -18000  -18012       2   17973   18000  -17991  -18003       2
   17955   17988  -17976  -17994       2   17949   17952  -17967  -17985       2
   17940   17946  -17958  -17982       2   17937   17976  -17955  -17979       2
   17934   17967  -17949  -17970       2   17934   17958  -17946  -17964       2
   17931   17958  -17940  -17961       2   17928   17940  -17931  -17943       2
   18123   18126  -18132  -18141       2   18117   18132  -18126  -18138       2
   18114   18132  -18123  -18135       2   18105   18126  -18117  -18129       2
   18099   18114  -18108  -18120       2   18081   18108  -18099  -18111       2
   18063   18096  -18084  -18102       2   18057   18060  -18075  -18093       2
   18048   18054  -18066  -18090       2   18045   18084  -18063  -18087       2
   18042   18075  -18057  -18078       2   18042   18066  -18054  -18072       2
   18039   18066  -18048  -18069       2   18036   18048  -18039  -18051       2
   18231   18234  -18240  -18249       2   18225   18240  -18234  -18246       2
   18222   18240  -18231  -18243       2   18213   18234  -18225  -18237       2
   18207   18222  -18216  -18228       2   18189   18216  -18207  -18219       2
   18171   18204  -18192  -18210       2   18165   18168  -18183  -18201       2
   18156   18162  -18174  -18198       2   18153   18192  -18171  -18195       2
   18150   18183  -18165  -18186       2   18150   18174  -18162  -18180       2
   18147   18174  -18156  -18177       2   18144   18156  -18147  -18159       2
   18339   18342  -18348  -18357       2   18333   18348  -18342  -18354       2
   18330   18348  -18339  -18351       2   18321   18342  -18333  -18345       2
   18315   18330  -18324  -18336       2   18297   18324  -18315  -18327       2
   18279   18312  -18300  -18318       2   18273   18276  -18291  -18309       2
   18264   18270  -18282  -18306       2   18261   18300  -18279  -18303       2
   18258   18291  -18273  -18294       2   18258   18282  -18270  -18288       2
   18255   18282  -18264  -18285       2   18252   18264  -18255  -18267       2
   18447   18450  -18456  -18465       2   18441   18456  -18450  -18462       2
   18438   18456  -18447  -18459       2   18429   18450  -18441  -18453       2
   18423   18438  -18432  -18444       2   18405   18432  -18423  -18435       2
   18387   18420  -18408  -18426       2   18381   18384  -18399  -18417       2
   18372   18378  -18390  -18414       2   18369   18408  -18387  -18411       2
   18366   18399  -18381  -18402       2   18366   18390  -18378  -18396       2
   18363   18390  -18372  -18393       2   18360   18372  -18363  -18375       2
   18555   18558  -18564  -18573       2   18549   18564  -18558  -18570       2
   18546   18564  -18555  -18567       2   18537   18558  -18549  -18561       2
   18531   18546  -18540  -18552       2   18513   18540  -18531  -18543       2
   18495   18528  -18516  -18534       2   18489   18492  -18507  -18525       2
   18480   18486  -18498  -18522       2   18477   18516  -18495  -18519       2
   18474   18507  -18489  -18510       2   18474   18498  -18486  -18504       2
   18471   18498  -18480  -18501       2   18468   18480  -18471  -18483       2
   18663   18666  -18672  -18681       2   18657   18672  -18666  -18678       2
   18654   18672  -18663  -18675       2   18645   18666  -18657  -18669       2
   18639   18654  -18648  -18660       2   18621   18648  -18639  -18651       2
   18603   18636  -18624  -18642       2   18597   18600  -18615  -18633       2
   18588   18594  -18606  -18630       2   18585   18624  -18603  -18627       2
   18582   18615  -18597  -18618       2   18582   18606  -18594  -18612       2
   18579   18606  -18588  -18609       2   18576   18588  -18579  -18591       2
   18771   18774  -18780  -18789       2   18765   18780  -18774  -18786       2
   18762   18780  -18771  -18783       2   18753   18774  -18765  -18777       2
   18747   18762  -18756  -18768       2   18729   18756  -18747  -18759       2
   18711   18744  -18732  -18750       2   18705   18708  -18723  -18741       2
   18696   18702  -18714  -18738       2   18693   18732  -18711  -18735       2
   18690   18723  -18705  -18726       2   18690   18714  -18702  -18720       2
   18687   18714  -18696  -18717       2   18684   18696  -18687  -18699       2
   18879   18882  -18888  -18897       2   18873   18888  -18882  -18894       2
   18870   18888  -18879  -18891       2   18861   18882  -18873  -18885       2
   18855   18870  -18864  -18876       2   18837   18864  -18855  -18867       2
   18819   18852  -18840  -18858       2   18813   18816  -18831  -18849       2
   18804   18810  -18822  -18846       2   18801   18840  -18819  -18843       2
   18798   18831  -18813  -18834       2   18798   18822  -18810  -18828       2
   18795   18822  -18804  -18825       2   18792   18804  -18795  -18807       2
   18987   18990  -18996  -19005       2   18981   18996  -18990  -19002       2
   18978   18996  -18987  -18999       2   18969   18990  -18981  -18993       2
   18963   18978  -18972  -18984       2   18945   18972  -18963  -18975       2
   18927   18960  -18948  -18966       2   18921   18924  -18939  -18957       2
   18912   18918  -18930  -18954       2   18909   18948  -18927  -18951       2
   18906   18939  -18921  -18942       2   18906   18930  -18918  -18936       2
   18903   18930  -18912  -18933       2   18900   18912  -18903  -18915       2
   19095   19098  -19104  -19113       2   19089   19104  -19098  -19110       2
   19086   19104  -19095  -19107       2   19077   19098  -19089  -19101       2
   19071   19086  -19080  -19092       2   19053   19080  -19071  -19083       2
   19035   19068  -19056  -19074       2   19029   19032  -19047  -19065       2
   19020   19026  -19038  -19062       2   19017   19056  -19035  -19059       2
   19014   19047  -19029  -19050       2   19014   19038  -19026  -19044       2
   19011   19038  -19020  -19041       2   19008   19020  -19011  -19023       2
   19203   19206  -19212  -19221       2   19197   19212  -19206  -19218       2
   19194   19212  -19203  -19215       2   19185   19206  -19197  -19209       2
   19179   19194  -19188  -19200       2   19161   19188  -19179  -19191       2
   19143   19176  -19164  -19182       2   19137   19140  -19155  -19173       2
   19128   19134  -19146  -19170       2   19125   19164  -19143  -19167       2
   19122   19155  -19137  -19158       2   19122   19146  -19134  -19152       2
   19119   19146  -19128  -19149       2   19116   19128  -19119  -19131       2
   19311   19314  -19320  -19329       2   19305   19320  -19314  -19326       2
   19302   19320  -19311  -19323       2   19293   19314  -19305  -19317       2
   19287   19302  -19296  -19308       2   19269   19296  -19287  -19299       2
   19251   19284  -19272  -19290       2   19245   19248  -19263  -19281       2
   19236   19242  -19254  -19278       2   19233   19272  -19251  -19275       2
   19230   19263  -19245  -19266       2   19230   19254  -19242  -19260       2
   19227   19254  -19236  -19257       2   19224   19236  -19227  -19239       2
   19419   19422  -19428  -19437       2   19413   19428  -19422  -19434       2
   19410   19428  -19419  -19431       2   19401   19422  -19413  -19425       2
   19395   19410  -19404  -19416       2   19377   19404  -19395  -19407       2
   19359   19392  -19380  -19398       2   19353   19356  -19371  -19389       2
   19344   19350  -19362  -19386       2   19341   19380  -19359  -19383       2
   19338   19371  -19353  -19374       2   19338   19362  -19350  -19368       2
   19335   19362  -19344  -19365       2   19332   19344  -19335  -19347       2
   19527   19530  -19536  -19545       2   19521   19536  -19530  -19542       2
   19518   19536  -19527  -19539       2   19509   19530  -19521  -19533       2
   19503   19518  -19512  -19524       2   19485   19512  -19503  -19515       2
   19467   19500  -19488  -19506       2   19461   19464  -19479  -19497       2
   19452   19458  -19470  -19494       2   19449   19488  -19467  -19491       2
   19446   19479  -19461  -19482       2   19446   19470  -19458  -19476       2
   19443   19470  -19452  -19473       2   19440   19452  -19443  -19455       2
   19635   19638  -19644  -19653       2   19629   19644  -19638  -19650       2
   19626   19644  -19635  -19647       2   19617   19638  -19629  -19641       2
   19611   19626  -19620  -19632       2   19593   19620  -19611  -19623       2
   19575   19608  -19596  -19614       2   19569   19572  -19587  -19605       2
   19560   19566  -19578  -19602       2   19557   19596  -19575  -19599       2
   19554   19587  -19569  -19590       2   19554   19578  -19566  -19584       2
   19551   19578  -19560  -19581       2   19548   19560  -19551  -19563       2
   19743   19746  -19752  -19761       2   19737   19752  -19746  -19758       2
   19734   19752  -19743  -19755       2   19725   19746  -19737  -19749       2
   19719   19734  -19728  -19740       2   19701   19728  -19719  -19731       2
   19683   19716  -19704  -19722       2   19677   19680  -19695  -19713       2
   19668   19674  -19686  -19710       2   19665   19704  -19683  -19707       2
   19662   19695  -19677  -19698       2   19662   19686  -19674  -19692       2
   19659   19686  -19668  -19689       2   19656   19668  -19659  -19671       2
   19851   19854  -19860  -19869       2   19845   19860  -19854  -19866       2
   19842   19860  -19851  -19863       2   19833   19854  -19845  -19857       2
   19827   19842  -19836  -19848       2   19809   19836  -19827  -19839       2
   19791   19824  -19812  -19830       2   19785   19788  -19803  -19821       2
   19776   19782  -19794  -19818       2   19773   19812  -19791  -19815       2
   19770   19803  -19785  -19806       2   19770   19794  -19782  -19800       2
   19767   19794  -19776  -19797       2   19764   19776  -19767  -19779       2
   19959   19962  -19968  -19977       2   19953   19968  -19962  -19974       2
   19950   19968  -19959  -19971       2   19941   19962  -19953  -19965       2
   19935   19950  -19944  -19956       2   19917   19944  -19935  -19947       2
   19899   19932  -19920  -19938       2   19893   19896  -19911  -19929       2
   19884   19890  -19902  -19926       2   19881   19920  -19899  -19923       2
   19878   19911  -19893  -19914       2   19878   19902  -19890  -19908       2
   19875   19902  -19884  -19905       2   19872   19884  -19875  -19887       2
   20067   20070  -20076  -20085       2   20061   20076  -20070  -20082       2
   20058   20076  -20067  -20079       2   20049   20070  -20061  -20073       2
   20043   20058  -20052  -20064       2   20025   20052  -20043  -20055       2
   20007   20040  -20028  -20046       2   20001   20004  -20019  -20037       2
   19992   19998  -20010  -20034       2   19989   20028  -20007  -20031       2
   19986   20019  -20001  -20022       2   19986   20010  -19998  -20016       2
   19983   20010  -19992  -20013       2   19980   19992  -19983  -19995       2
   20175   20178  -20184  -20193       2   20169   20184  -20178  -20190       2
   20166   20184  -20175  -20187       2   20157   20178  -20169  -20181       2
   20151   20166  -20160  -20172       2   20133   20160  -20151  -20163       2
   20115   20148  -20136  -20154       2   20109   20112  -20127  -20145       2
   20100   20106  -20118  -20142       2   20097   20136  -20115  -20139       2
   20094   20127  -20109  -20130       2   20094   20118  -20106  -20124       2
   20091   20118  -20100  -20121       2   20088   20100  -20091  -20103       2
   20283   20286  -20292  -20301       2   20277   20292  -20286  -20298       2
   20274   20292  -20283  -20295       2   20265   20286  -20277  -20289       2
   20259   20274  -20268  -20280       2   20241   20268  -20259  -20271       2
   20223   20256  -20244  -20262       2   20217   20220  -20235  -20253       2
   20208   20214  -20226  -20250       2   20205   20244  -20223  -20247       2
   20202   20235  -20217  -20238       2   20202   20226  -20214  -20232       2
   20199   20226  -20208  -20229       2   20196   20208  -20199  -20211       2
   20391   20394  -20400  -20409       2   20385   20400  -20394  -20406       2
   20382   20400  -20391  -20403       2   20373   20394  -20385  -20397       2
   20367   20382  -20376  -20388       2   20349   20376  -20367  -20379       2
   20331   20364  -20352  -20370       2   20325   20328  -20343  -20361       2
   20316   20322  -20334  -20358       2   20313   20352  -20331  -20355       2
   20310   20343  -20325  -20346       2   20310   20334  -20322  -20340       2
   20307   20334  -20316  -20337       2   20304   20316  -20307  -20319       2
   20499   20502  -20508  -20517       2   20493   20508  -20502  -20514       2
   20490   20508  -20499  -20511       2   20481   20502  -20493  -20505       2
   20475   20490  -20484  -20496       2   20457   20484  -20475  -20487       2
   20439   20472  -20460  -20478       2   20433   20436  -20451  -20469       2
   20424   20430  -20442  -20466       2   20421   20460  -20439  -20463       2
   20418   20451  -20433  -20454       2   20418   20442  -20430  -20448       2
   20415   20442  -20424  -20445       2   20412   20424  -20415  -20427       2
   20607   20610  -20616  -20625       2   20601   20616  -20610  -20622       2
   20598   20616  -20607  -20619       2   20589   20610  -20601  -20613       2
   20583   20598  -20592  -20604       2   20565   20592  -20583  -20595       2
   20547   20580  -20568  -20586       2   20541   20544  -20559  -20577       2
   20532   20538  -20550  -20574       2   20529   20568  -20547  -20571       2
   20526   20559  -20541  -20562       2   20526   20550  -20538  -20556       2
   20523   20550  -20532  -20553       2   20520   20532  -20523  -20535       2
   20715   20718  -20724  -20733       2   20709   20724  -20718  -20730       2
   20706   20724  -20715  -20727       2   20697   20718  -20709  -20721       2
   20691   20706  -20700  -20712       2   20673   20700  -20691  -20703       2
   20655   20688  -20676  -20694       2   20649   20652  -20667  -20685       2
   20640   20646  -20658  -20682       2   20637   20676  -20655  -20679       2
   20634   20667  -20649  -20670       2   20634   20658  -20646  -20664       2
   20631   20658  -20640  -20661       2   20628   20640  -20631  -20643       2
   20823   20826  -20832  -20841       2   20817   20832  -20826  -20838       2
   20814   20832  -20823  -20835       2   20805   20826  -20817  -20829       2
   20799   20814  -20808  -20820       2   20781   20808  -20799  -20811       2
   20763   20796  -20784  -20802       2   20757   20760  -20775  -20793       2
   20748   20754  -20766  -20790       2   20745   20784  -20763  -20787       2
   20742   20775  -20757  -20778       2   20742   20766  -20754  -20772       2
   20739   20766  -20748  -20769       2   20736   20748  -20739  -20751       2
   20931   20934  -20940  -20949       2   20925   20940  -20934  -20946       2
   20922   20940  -20931  -20943       2   20913   20934  -20925  -20937       2
   20907   20922  -20916  -20928       2   20889   20916  -20907  -20919       2
   20871   20904  -20892  -20910       2   20865   20868  -20883  -20901       2
   20856   20862  -20874  -20898       2   20853   20892  -20871  -20895       2
   20850   20883  -20865  -20886       2   20850   20874  -20862  -20880       2
   20847   20874  -20856  -20877       2   20844   20856  -20847  -20859       2
   21039   21042  -21048  -21057       2   21033   21048  -21042  -21054       2
   21030   21048  -21039  -21051       2   21021   21042  -21033  -21045       2
   21015   21030  -21024  -21036       2   20997   21024  -21015  -21027       2
   20979   21012  -21000  -21018       2   20973   20976  -20991  -21009       2
   20964   20970  -20982  -21006       2   20961   21000  -20979  -21003       2
   20958   20991  -20973  -20994       2   20958   20982  -20970  -20988       2
   20955   20982  -20964  -20985       2   20952   20964  -20955  -20967       2
   21147   21150  -21156  -21165       2   21141   21156  -21150  -21162       2
   21138   21156  -21147  -21159       2   21129   21150  -21141  -21153       2
   21123   21138  -21132  -21144       2   21105   21132  -21123  -21135       2
   21087   21120  -21108  -21126       2   21081   21084  -21099  -21117       2
   21072   21078  -21090  -21114       2   21069   21108  -21087  -21111       2
   21066   21099  -21081  -21102       2   21066   21090  -21078  -21096       2
   21063   21090  -21072  -21093       2   21060   21072  -21063  -21075       2
   21255   21258  -21264  -21273       2   21249   21264  -21258  -21270       2
   21246   21264  -21255  -21267       2   21237   21258  -21249  -21261       2
   21231   21246  -21240  -21252       2   21213   21240  -21231  -21243       2
   21195   21228  -21216  -21234       2   21189   21192  -21207  -21225       2
   21180   21186  -21198  -21222       2   21177   21216  -21195  -21219       2
   21174   21207  -21189  -21210       2   21174   21198  -21186  -21204       2
   21171   21198  -21180  -21201       2   21168   21180  -21171  -21183       2
   21363   21366  -21372  -21381       2   21357   21372  -21366  -21378       2
   21354   21372  -21363  -21375       2   21345   21366  -21357  -21369       2
   21339   21354  -21348  -21360       2   21321   21348  -21339  -21351       2
   21303   21336  -21324  -21342       2   21297   21300  -21315  -21333       2
   21288   21294  -21306  -21330       2   21285   21324  -21303  -21327       2
   21282   21315  -21297  -21318       2   21282   21306  -21294  -21312       2
   21279   21306  -21288  -21309       2   21276   21288  -21279  -21291       2
   21471   21474  -21480  -21489       2   21465   21480  -21474  -21486       2
   21462   21480  -21471  -21483       2   21453   21474  -21465  -21477       2
   21447   21462  -21456  -21468       2   21429   21456  -21447  -21459       2
   21411   21444  -21432  -21450       2   21405   21408  -21423  -21441       2
   21396   21402  -21414  -21438       2   21393   21432  -21411  -21435       2
   21390   21423  -21405  -21426       2   21390   21414  -21402  -21420       2
   21387   21414  -21396  -21417       2   21384   21396  -21387  -21399       2
   21579   21582  -21588  -21597       2   21573   21588  -21582  -21594       2
   21570   21588  -21579  -21591       2   21561   21582  -21573  -21585       2
   21555   21570  -21564  -21576       2   21537   21564  -21555  -21567       2
   21519   21552  -21540  -21558       2   21513   21516  -21531  -21549       2
   21504   21510  -21522  -21546       2   21501   21540  -21519  -21543       2
   21498   21531  -21513  -21534       2   21498   21522  -21510  -21528       2
   21495   21522  -21504  -21525       2   21492   21504  -21495  -21507       2
   21687   21690  -21696  -21705       2   21681   21696  -21690  -21702       2
   21678   21696  -21687  -21699       2   21669   21690  -21681  -21693       2
   21663   21678  -21672  -21684       2   21645   21672  -21663  -21675       2
   21627   21660  -21648  -21666       2   21621   21624  -21639  -21657       2
   21612   21618  -21630  -21654       2   21609   21648  -21627  -21651       2
   21606   21639  -21621  -21642       2   21606   21630  -21618  -21636       2
   21603   21630  -21612  -21633       2   21600   21612  -21603  -21615       2
   21795   21798  -21804  -21813       2   21789   21804  -21798  -21810       2
   21786   21804  -21795  -21807       2   21777   21798  -21789  -21801       2
   21771   21786  -21780  -21792       2   21753   21780  -21771  -21783       2
   21735   21768  -21756  -21774       2   21729   21732  -21747  -21765       2
   21720   21726  -21738  -21762       2   21717   21756  -21735  -21759       2
   21714   21747  -21729  -21750       2   21714   21738  -21726  -21744       2
   21711   21738  -21720  -21741       2   21708   21720  -21711  -21723       2
   21903   21906  -21912  -21921       2   21897   21912  -21906  -21918       2
   21894   21912  -21903  -21915       2   21885   21906  -21897  -21909       2
   21879   21894  -21888  -21900       2   21861   21888  -21879  -21891       2
   21843   21876  -21864  -21882       2   21837   21840  -21855  -21873       2
   21828   21834  -21846  -21870       2   21825   21864  -21843  -21867       2
   21822   21855  -21837  -21858       2   21822   21846  -21834  -21852       2
   21819   21846  -21828  -21849       2   21816   21828  -21819  -21831       2
   22011   22014  -22020  -22029       2   22005   22020  -22014  -22026       2
   22002   22020  -22011  -22023       2   21993   22014  -22005  -22017       2
   21987   22002  -21996  -22008       2   21969   21996  -21987  -21999       2
   21951   21984  -21972  -21990       2   21945   21948  -21963  -21981       2
   21936   21942  -21954  -21978       2   21933   21972  -21951  -21975       2
   21930   21963  -21945  -21966       2   21930   21954  -21942  -21960       2
   21927   21954  -21936  -21957       2   21924   21936  -21927  -21939       2
   22119   22122  -22128  -22137       2   22113   22128  -22122  -22134       2
   22110   22128  -22119  -22131       2   22101   22122  -22113  -22125       2
   22095   22110  -22104  -22116       2   22077   22104  -22095  -22107       2
   22059   22092  -22080  -22098       2   22053   22056  -22071  -22089       2
   22044   22050  -22062  -22086       2   22041   22080  -22059  -22083       2
   22038   22071  -22053  -22074       2   22038   22062  -22050  -22068       2
   22035   22062  -22044  -22065       2   22032   22044  -22035  -22047       2
   22227   22230  -22236  -22245       2   22221   22236  -22230  -22242       2
   22218   22236  -22227  -22239       2   22209   22230  -22221  -22233       2
   22203   22218  -22212  -22224       2   22185   22212  -22203  -22215       2
   22167   22200  -22188  -22206       2   22161   22164  -22179  -22197       2
   22152   22158  -22170  -22194       2   22149   22188  -22167  -22191       2
   22146   22179  -22161  -22182       2   22146   22170  -22158  -22176       2
   22143   22170  -22152  -22173       2   22140   22152  -22143  -22155       2
   22335   22338  -22344  -22353       2   22329   22344  -22338  -22350       2
   22326   22344  -22335  -22347       2   22317   22338  -22329  -22341       2
   22311   22326  -22320  -22332       2   22293   22320  -22311  -22323       2
   22275   22308  -22296  -22314       2   22269   22272  -22287  -22305       2
   22260   22266  -22278  -22302       2   22257   22296  -22275  -22299       2
   22254   22287  -22269  -22290       2   22254   22278  -22266  -22284       2
   22251   22278  -22260  -22281       2   22248   22260  -22251  -22263       2
   22443   22446  -22452  -22461       2   22437   22452  -22446  -22458       2
   22434   22452  -22443  -22455       2   22425   22446  -22437  -22449       2
   22419   22434  -22428  -22440       2   22401   22428  -22419  -22431       2
   22383   22416  -22404  -22422       2   22377   22380  -22395  -22413       2
   22368   22374  -22386  -22410       2   22365   22404  -22383  -22407       2
   22362   22395  -22377  -22398       2   22362   22386  -22374  -22392       2
   22359   22386  -22368  -22389       2   22356   22368  -22359  -22371       2
   22551   22554  -22560  -22569       2   22545   22560  -22554  -22566       2
   22542   22560  -22551  -22563       2   22533   22554  -22545  -22557       2
   22527   22542  -22536  -22548       2   22509   22536  -22527  -22539       2
   22491   22524  -22512  -22530       2   22485   22488  -22503  -22521       2
   22476   22482  -22494  -22518       2   22473   22512  -22491  -22515       2
   22470   22503  -22485  -22506       2   22470   22494  -22482  -22500       2
   22467   22494  -22476  -22497       2   22464   22476  -22467  -22479       2
   22659   22662  -22668  -22677       2   22653   22668  -22662  -22674       2
   22650   22668  -22659  -22671       2   22641   22662  -22653  -22665       2
   22635   22650  -22644  -22656       2   22617   22644  -22635  -22647       2
   22599   22632  -22620  -22638       2   22593   22596  -22611  -22629       2
   22584   22590  -22602  -22626       2   22581   22620  -22599  -22623       2
   22578   22611  -22593  -22614       2   22578   22602  -22590  -22608       2
   22575   22602  -22584  -22605       2   22572   22584  -22575  -22587       2
   22767   22770  -22776  -22785       2   22761   22776  -22770  -22782       2
   22758   22776  -22767  -22779       2   22749   22770  -22761  -22773       2
   22743   22758  -22752  -22764       2   22725   22752  -22743  -22755       2
   22707   22740  -22728  -22746       2   22701   22704  -22719  -22737       2
   22692   22698  -22710  -22734       2   22689   22728  -22707  -22731       2
   22686   22719  -22701  -22722       2   22686   22710  -22698  -22716       2
   22683   22710  -22692  -22713       2   22680   22692  -22683  -22695       2
   22875   22878  -22884  -22893       2   22869   22884  -22878  -22890       2
   22866   22884  -22875  -22887       2   22857   22878  -22869  -22881       2
   22851   22866  -22860  -22872       2   22833   22860  -22851  -22863       2
   22815   22848  -22836  -22854       2   22809   22812  -22827  -22845       2
   22800   22806  -22818  -22842       2   22797   22836  -22815  -22839       2
   22794   22827  -22809  -22830       2   22794   22818  -22806  -22824       2
   22791   22818  -22800  -22821       2   22788   22800  -22791  -22803       2
   22983   22986  -22992  -23001       2   22977   22992  -22986  -22998       2
   22974   22992  -22983  -22995       2   22965   22986  -22977  -22989       2
   22959   22974  -22968  -22980       2   22941   22968  -22959  -22971       2
   22923   22956  -22944  -22962       2   22917   22920  -22935  -22953       2
   22908   22914  -22926  -22950       2   22905   22944  -22923  -22947       2
   22902   22935  -22917  -22938       2   22902   22926  -22914  -22932       2
   22899   22926  -22908  -22929       2   22896   22908  -22899  -22911       2
   23091   23094  -23100  -23109       2   23085   23100  -23094  -23106       2
   23082   23100  -23091  -23103       2   23073   23094  -23085  -23097       2
   23067   23082  -23076  -23088       2   23049   23076  -23067  -23079       2
   23031   23064  -23052  -23070       2   23025   23028  -23043  -23061       2
   23016   23022  -23034  -23058       2   23013   23052  -23031  -23055       2
   23010   23043  -23025  -23046       2   23010   23034  -23022  -23040       2
   23007   23034  -23016  -23037       2   23004   23016  -23007  -23019       2
   23199   23202  -23208  -23217       2   23193   23208  -23202  -23214       2
   23190   23208  -23199  -23211       2   23181   23202  -23193  -23205       2
   23175   23190  -23184  -23196       2   23157   23184  -23175  -23187       2
   23139   23172  -23160  -23178       2   23133   23136  -23151  -23169       2
   23124   23130  -23142  -23166       2   23121   23160  -23139  -23163       2
   23118   23151  -23133  -23154       2   23118   23142  -23130  -23148       2
   23115   23142  -23124  -23145       2   23112   23124  -23115  -23127       2
   23307   23310  -23316  -23325       2   23301   23316  -23310  -23322       2
   23298   23316  -23307  -23319       2   23289   23310  -23301  -23313       2
   23283   23298  -23292  -23304       2   23265   23292  -23283  -23295       2
   23247   23280  -23268  -23286       2   23241   23244  -23259  -23277       2
   23232   23238  -23250  -23274       2   23229   23268  -23247  -23271       2
   23226   23259  -23241  -23262       2   23226   23250  -23238  -23256       2
   23223   23250  -23232  -23253       2   23220   23232  -23223  -23235       2
   23415   23418  -23424  -23433       2   23409   23424  -23418  -23430       2
   23406   23424  -23415  -23427       2   23397   23418  -23409  -23421       2
   23391   23406  -23400  -23412       2   23373   23400  -23391  -23403       2
   23355   23388  -23376  -23394       2   23349   23352  -23367  -23385       2
   23340   23346  -23358  -23382       2   23337   23376  -23355  -23379       2
   23334   23367  -23349  -23370       2   23334   23358  -23346  -23364       2
   23331   23358  -23340  -23361       2   23328   23340  -23331  -23343       2
   23523   23526  -23532  -23541       2   23517   23532  -23526  -23538       2
   23514   23532  -23523  -23535       2   23505   23526  -23517  -23529       2
   23499   23514  -23508  -23520       2   23481   23508  -23499  -23511       2
   23463   23496  -23484  -23502       2   23457   23460  -23475  -23493       2
   23448   23454  -23466  -23490       2   23445   23484  -23463  -23487       2
   23442   23475  -23457  -23478       2   23442   23466  -23454  -23472       2
   23439   23466  -23448  -23469       2   23436   23448  -23439  -23451       2
   23631   23634  -23640  -23649       2   23625   23640  -23634  -23646       2
   23622   23640  -23631  -23643       2   23613   23634  -23625  -23637       2
   23607   23622  -23616  -23628       2   23589   23616  -23607  -23619       2
   23571   23604  -23592  -23610       2   23565   23568  -23583  -23601       2
   23556   23562  -23574  -23598       2   23553   23592  -23571  -23595       2
   23550   23583  -23565  -23586       2   23550   23574  -23562  -23580       2
   23547   23574  -23556  -23577       2   23544   23556  -23547  -23559       2
   23739   23742  -23748  -23757       2   23733   23748  -23742  -23754       2
   23730   23748  -23739  -23751       2   23721   23742  -23733  -23745       2
   23715   23730  -23724  -23736       2   23697   23724  -23715  -23727       2
   23679   23712  -23700  -23718       2   23673   23676  -23691  -23709       2
   23664   23670  -23682  -23706       2   23661   23700  -23679  -23703       2
   23658   23691  -23673  -23694       2   23658   23682  -23670  -23688       2
   23655   23682  -23664  -23685       2   23652   23664  -23655  -23667       2
   23847   23850  -23856  -23865       2   23841   23856  -23850  -23862       2
   23838   23856  -23847  -23859       2   23829   23850  -23841  -23853       2
   23823   23838  -23832  -23844       2   23805   23832  -23823  -23835       2
   23787   23820  -23808  -23826       2   23781   23784  -23799  -23817       2
   23772   23778  -23790  -23814       2   23769   23808  -23787  -23811       2
   23766   23799  -23781  -23802       2   23766   23790  -23778  -23796       2
   23763   23790  -23772  -23793       2   23760   23772  -23763  -23775       2
   23955   23958  -23964  -23973       2   23949   23964  -23958  -23970       2
   23946   23964  -23955  -23967       2   23937   23958  -23949  -23961       2
   23931   23946  -23940  -23952       2   23913   23940  -23931  -23943       2
   23895   23928  -23916  -23934       2   23889   23892  -23907  -23925       2
   23880   23886  -23898  -23922       2   23877   23916  -23895  -23919       2
   23874   23907  -23889  -23910       2   23874   23898  -23886  -23904       2
   23871   23898  -23880  -23901       2   23868   23880  -23871  -23883       2
   24063   24066  -24072  -24081       2   24057   24072  -24066  -24078       2
   24054   24072  -24063  -24075       2   24045   24066  -24057  -24069       2
   24039   24054  -24048  -24060       2   24021   24048  -24039  -24051       2
   24003   24036  -24024  -24042       2   23997   24000  -24015  -24033       2
   23988   23994  -24006  -24030       2   23985   24024  -24003  -24027       2
   23982   24015  -23997  -24018       2   23982   24006  -23994  -24012       2
   23979   24006  -23988  -24009       2   23976   23988  -23979  -23991       2
   24171   24174  -24180  -24189       2   24165   24180  -24174  -24186       2
   24162   24180  -24171  -24183       2   24153   24174  -24165  -24177       2
   24147   24162  -24156  -24168       2   24129   24156  -24147  -24159       2
   24111   24144  -24132  -24150       2   24105   24108  -24123  -24141       2
   24096   24102  -24114  -24138       2   24093   24132  -24111  -24135       2
   24090   24123  -24105  -24126       2   24090   24114  -24102  -24120       2
   24087   24114  -24096  -24117       2   24084   24096  -24087  -24099       2
   24279   24282  -24288  -24297       2   24273   24288  -24282  -24294       2
   24270   24288  -24279  -24291       2   24261   24282  -24273  -24285       2
   24255   24270  -24264  -24276       2   24237   24264  -24255  -24267       2
   24219   24252  -24240  -24258       2   24213   24216  -24231  -24249       2
   24204   24210  -24222  -24246       2   24201   24240  -24219  -24243       2
   24198   24231  -24213  -24234       2   24198   24222  -24210  -24228       2
   24195   24222  -24204  -24225       2   24192   24204  -24195  -24207       2
   24387   24390  -24396  -24405       2   24381   24396  -24390  -24402       2
   24378   24396  -24387  -24399       2   24369   24390  -24381  -24393       2
   24363   24378  -24372  -24384       2   24345   24372  -24363  -24375       2
   24327   24360  -24348  -24366       2   24321   24324  -24339  -24357       2
   24312   24318  -24330  -24354       2   24309   24348  -24327  -24351       2
   24306   24339  -24321  -24342       2   24306   24330  -24318  -24336       2
   24303   24330  -24312  -24333       2   24300   24312  -24303  -24315       2
   24495   24498  -24504  -24513       2   24489   24504  -24498  -24510       2
   24486   24504  -24495  -24507       2   24477   24498  -24489  -24501       2
   24471   24486  -24480  -24492       2   24453   24480  -24471  -24483       2
   24435   24468  -24456  -24474       2   24429   24432  -24447  -24465       2
   24420   24426  -24438  -24462       2   24417   24456  -24435  -24459       2
   24414   24447  -24429  -24450       2   24414   24438  -24426  -24444       2
   24411   24438  -24420  -24441       2   24408   24420  -24411  -24423       2
   24603   24606  -24612  -24621       2   24597   24612  -24606  -24618       2
   24594   24612  -24603  -24615       2   24585   24606  -24597  -24609       2
   24579   24594  -24588  -24600       2   24561   24588  -24579  -24591       2
   24543   24576  -24564  -24582       2   24537   24540  -24555  -24573       2
   24528   24534  -24546  -24570       2   24525   24564  -24543  -24567       2
   24522   24555  -24537  -24558       2   24522   24546  -24534  -24552       2
   24519   24546  -24528  -24549       2   24516   24528  -24519  -24531       2
   24711   24714  -24720  -24729       2   24705   24720  -24714  -24726       2
   24702   24720  -24711  -24723       2   24693   24714  -24705  -24717       2
   24687   24702  -24696  -24708       2   24669   24696  -24687  -24699       2
   24651   24684  -24672  -24690       2   24645   24648  -24663  -24681       2
   24636   24642  -24654  -24678       2   24633   24672  -24651  -24675       2
   24630   24663  -24645  -24666       2   24630   24654  -24642  -24660       2
   24627   24654  -24636  -24657       2   24624   24636  -24627  -24639       2
   24819   24822  -24828  -24837       2   24813   24828  -24822  -24834       2
   24810   24828  -24819  -24831       2   24801   24822  -24813  -24825       2
   24795   24810  -24804  -24816       2   24777   24804  -24795  -24807       2
   24759   24792  -24780  -24798       2   24753   24756  -24771  -24789       2
   24744   24750  -24762  -24786       2   24741   24780  -24759  -24783       2
   24738   24771  -24753  -24774       2   24738   24762  -24750  -24768       2
   24735   24762  -24744  -24765       2   24732   24744  -24735  -24747       2
   24927   24930  -24936  -24945       2   24921   24936  -24930  -24942       2
   24918   24936  -24927  -24939       2   24909   24930  -24921  -24933       2
   24903   24918  -24912  -24924       2   24885   24912  -24903  -24915       2
   24867   24900  -24888  -24906       2   24861   24864  -24879  -24897       2
   24852   24858  -24870  -24894       2   24849   24888  -24867  -24891       2
   24846   24879  -24861  -24882       2   24846   24870  -24858  -24876       2
   24843   24870  -24852  -24873       2   24840   24852  -24843  -24855       2
   25035   25038  -25044  -25053       2   25029   25044  -25038  -25050       2
   25026   25044  -25035  -25047       2   25017   25038  -25029  -25041       2
   25011   25026  -25020  -25032       2   24993   25020  -25011  -25023       2
   24975   25008  -24996  -25014       2   24969   24972  -24987  -25005       2
   24960   24966  -24978  -25002       2   24957   24996  -24975  -24999       2
   24954   24987  -24969  -24990       2   24954   24978  -24966  -24984       2
   24951   24978  -24960  -24981       2   24948   24960  -24951  -24963       2
   25143   25146  -25152  -25161       2   25137   25152  -25146  -25158       2
   25134   25152  -25143  -25155       2   25125   25146  -25137  -25149       2
   25119   25134  -25128  -25140       2   25101   25128  -25119  -25131       2
   25083   25116  -25104  -25122       2   25077   25080  -25095  -25113       2
   25068   25074  -25086  -25110       2   25065   25104  -25083  -25107       2
   25062   25095  -25077  -25098       2   25062   25086  -25074  -25092       2
   25059   25086  -25068  -25089       2   25056   25068  -25059  -25071       2
   25251   25254  -25260  -25269       2   25245   25260  -25254  -25266       2
   25242   25260  -25251  -25263       2   25233   25254  -25245  -25257       2
   25227   25242  -25236  -25248       2   25209   25236  -25227  -25239       2
   25191   25224  -25212  -25230       2   25185   25188  -25203  -25221       2
   25176   25182  -25194  -25218       2   25173   25212  -25191  -25215       2
   25170   25203  -25185  -25206       2   25170   25194  -25182  -25200       2
   25167   25194  -25176  -25197       2   25164   25176  -25167  -25179       2
   25359   25362  -25368  -25377       2   25353   25368  -25362  -25374       2
   25350   25368  -25359  -25371       2   25341   25362  -25353  -25365       2
   25335   25350  -25344  -25356       2   25317   25344  -25335  -25347       2
   25299   25332  -25320  -25338       2   25293   25296  -25311  -25329       2
   25284   25290  -25302  -25326       2   25281   25320  -25299  -25323       2
   25278   25311  -25293  -25314       2   25278   25302  -25290  -25308       2
   25275   25302  -25284  -25305       2   25272   25284  -25275  -25287       2
   25467   25470  -25476  -25485       2   25461   25476  -25470  -25482       2
   25458   25476  -25467  -25479       2   25449   25470  -25461  -25473       2
   25443   25458  -25452  -25464       2   25425   25452  -25443  -25455       2
   25407   25440  -25428  -25446       2   25401   25404  -25419  -25437       2
   25392   25398  -25410  -25434       2   25389   25428  -25407  -25431       2
   25386   25419  -25401  -25422       2   25386   25410  -25398  -25416       2
   25383   25410  -25392  -25413       2   25380   25392  -25383  -25395       2
   25575   25578  -25584  -25593       2   25569   25584  -25578  -25590       2
   25566   25584  -25575  -25587       2   25557   25578  -25569  -25581       2
   25551   25566  -25560  -25572       2   25533   25560  -25551  -25563       2
   25515   25548  -25536  -25554       2   25509   25512  -25527  -25545       2
   25500   25506  -25518  -25542       2   25497   25536  -25515  -25539       2
   25494   25527  -25509  -25530       2   25494   25518  -25506  -25524       2
   25491   25518  -25500  -25521       2   25488   25500  -25491  -25503       2
   25683   25686  -25692  -25701       2   25677   25692  -25686  -25698       2
   25674   25692  -25683  -25695       2   25665   25686  -25677  -25689       2
   25659   25674  -25668  -25680       2   25641   25668  -25659  -25671       2
   25623   25656  -25644  -25662       2   25617   25620  -25635  -25653       2
   25608   25614  -25626  -25650       2   25605   25644  -25623  -25647       2
   25602   25635  -25617  -25638       2   25602   25626  -25614  -25632       2
   25599   25626  -25608  -25629       2   25596   25608  -25599  -25611       2
   25791   25794  -25800  -25809       2   25785   25800  -25794  -25806       2
   25782   25800  -25791  -25803       2   25773   25794  -25785  -25797       2
   25767   25782  -25776  -25788       2   25749   25776  -25767  -25779       2
   25731   25764  -25752  -25770       2   25725   25728  -25743  -25761       2
   25716   25722  -25734  -25758       2   25713   25752  -25731  -25755       2
   25710   25743  -25725  -25746       2   25710   25734  -25722  -25740       2
   25707   25734  -25716  -25737       2   25704   25716  -25707  -25719       2
   25899   25902  -25908  -25917       2   25893   25908  -25902  -25914       2
   25890   25908  -25899  -25911       2   25881   25902  -25893  -25905       2
   25875   25890  -25884  -25896       2   25857   25884  -25875  -25887       2
   25839   25872  -25860  -25878       2   25833   25836  -25851  -25869       2
   25824   25830  -25842  -25866       2   25821   25860  -25839  -25863       2
   25818   25851  -25833  -25854       2   25818   25842  -25830  -25848       2
   25815   25842  -25824  -25845       2   25812   25824  -25815  -25827       2
   26007   26010  -26016  -26025       2   26001   26016  -26010  -26022       2
   25998   26016  -26007  -26019       2   25989   26010  -26001  -26013       2
   25983   25998  -25992  -26004       2   25965   25992  -25983  -25995       2
   25947   25980  -25968  -25986       2   25941   25944  -25959  -25977       2
   25932   25938  -25950  -25974       2   25929   25968  -25947  -25971       2
   25926   25959  -25941  -25962       2   25926   25950  -25938  -25956       2
   25923   25950  -25932  -25953       2   25920   25932  -25923  -25935       2
   26115   26118  -26124  -26133       2   26109   26124  -26118  -26130       2
   26106   26124  -26115  -26127       2   26097   26118  -26109  -26121       2
   26091   26106  -26100  -26112       2   26073   26100  -26091  -26103       2
   26055   26088  -26076  -26094       2   26049   26052  -26067  -26085       2
   26040   26046  -26058  -26082       2   26037   26076  -26055  -26079       2
   26034   26067  -26049  -26070       2   26034   26058  -26046  -26064       2
   26031   26058  -26040  -26061       2   26028   26040  -26031  -26043       2
   26223   26226  -26232  -26241       2   26217   26232  -26226  -26238       2
   26214   26232  -26223  -26235       2   26205   26226  -26217  -26229       2
   26199   26214  -26208  -26220       2   26181   26208  -26199  -26211       2
   26163   26196  -26184  -26202       2   26157   26160  -26175  -26193       2
   26148   26154  -26166  -26190       2   26145   26184  -26163  -26187       2
   26142   26175  -26157  -26178       2   26142   26166  -26154  -26172       2
   26139   26166  -26148  -26169       2   26136   26148  -26139  -26151       2
   26331   26334  -26340  -26349       2   26325   26340  -26334  -26346       2
   26322   26340  -26331  -26343       2   26313   26334  -26325  -26337       2
   26307   26322  -26316  -26328       2   26289   26316  -26307  -26319       2
   26271   26304  -26292  -26310       2   26265   26268  -26283  -26301       2
   26256   26262  -26274  -26298       2   26253   26292  -26271  -26295       2
   26250   26283  -26265  -26286       2   26250   26274  -26262  -26280       2
   26247   26274  -26256  -26277       2   26244   26256  -26247  -26259       2
   26439   26442  -26448  -26457       2   26433   26448  -26442  -26454       2
   26430   26448  -26439  -26451       2   26421   26442  -26433  -26445       2
   26415   26430  -26424  -26436       2   26397   26424  -26415  -26427       2
   26379   26412  -26400  -26418       2   26373   26376  -26391  -26409       2
   26364   26370  -26382  -26406       2   26361   26400  -26379  -26403       2
   26358   26391  -26373  -26394       2   26358   26382  -26370  -26388       2
   26355   26382  -26364  -26385       2   26352   26364  -26355  -26367       2
   26547   26550  -26556  -26565       2   26541   26556  -26550  -26562       2
   26538   26556  -26547  -26559       2   26529   26550  -26541  -26553       2
   26523   26538  -26532  -26544       2   26505   26532  -26523  -26535       2
   26487   26520  -26508  -26526       2   26481   26484  -26499  -26517       2
   26472   26478  -26490  -26514       2   26469   26508  -26487  -26511       2
   26466   26499  -26481  -26502       2   26466   26490  -26478  -26496       2
   26463   26490  -26472  -26493       2   26460   26472  -26463  -26475       2
   26655   26658  -26664  -26673       2   26649   26664  -26658  -26670       2
   26646   26664  -26655  -26667       2   26637   26658  -26649  -26661       2
   26631   26646  -26640  -26652       2   26613   26640  -26631  -26643       2
   26595   26628  -26616  -26634       2   26589   26592  -26607  -26625       2
   26580   26586  -26598  -26622       2   26577   26616  -26595  -26619       2
   26574   26607  -26589  -26610       2   26574   26598  -26586  -26604       2
   26571   26598  -26580  -26601       2   26568   26580  -26571  -26583       2
   26763   26766  -26772  -26781       2   26757   26772  -26766  -26778       2
   26754   26772  -26763  -26775       2   26745   26766  -26757  -26769       2
   26739   26754  -26748  -26760       2   26721   26748  -26739  -26751       2
   26703   26736  -26724  -26742       2   26697   26700  -26715  -26733       2
   26688   26694  -26706  -26730       2   26685   26724  -26703  -26727       2
   26682   26715  -26697  -26718       2   26682   26706  -26694  -26712       2
   26679   26706  -26688  -26709       2   26676   26688  -26679  -26691       2
   26871   26874  -26880  -26889       2   26865   26880  -26874  -26886       2
   26862   26880  -26871  -26883       2   26853   26874  -26865  -26877       2
   26847   26862  -26856  -26868       2   26829   26856  -26847  -26859       2
   26811   26844  -26832  -26850       2   26805   26808  -26823  -26841       2
   26796   26802  -26814  -26838       2   26793   26832  -26811  -26835       2
   26790   26823  -26805  -26826       2   26790   26814  -26802  -26820       2
   26787   26814  -26796  -26817       2   26784   26796  -26787  -26799       2
   26979   26982  -26988  -26997       2   26973   26988  -26982  -26994       2
   26970   26988  -26979  -26991       2   26961   26982  -26973  -26985       2
   26955   26970  -26964  -26976       2   26937   26964  -26955  -26967       2
   26919   26952  -26940  -26958       2   26913   26916  -26931  -26949       2
   26904   26910  -26922  -26946       2   26901   26940  -26919  -26943       2
   26898   26931  -26913  -26934       2   26898   26922  -26910  -26928       2
   26895   26922  -26904  -26925       2   26892   26904  -26895  -26907       2
   27087   27090  -27096  -27105       2   27081   27096  -27090  -27102       2
   27078   27096  -27087  -27099       2   27069   27090  -27081  -27093       2
   27063   27078  -27072  -27084       2   27045   27072  -27063  -27075       2
   27027   27060  -27048  -27066       2   27021   27024  -27039  -27057       2
   27012   27018  -27030  -27054       2   27009   27048  -27027  -27051       2
   27006   27039  -27021  -27042       2   27006   27030  -27018  -27036       2
   27003   27030  -27012  -27033       2   27000   27012  -27003  -27015       2
   27195   27198  -27204  -27213       2   27189   27204  -27198  -27210       2
   27186   27204  -27195  -27207       2   27177   27198  -27189  -27201       2
   27171   27186  -27180  -27192       2   27153   27180  -27171  -27183       2
   27135   27168  -27156  -27174       2   27129   27132  -27147  -27165       2
   27120   27126  -27138  -27162       2   27117   27156  -27135  -27159       2
   27114   27147  -27129  -27150       2   27114   27138  -27126  -27144       2
   27111   27138  -27120  -27141       2   27108   27120  -27111  -27123       2
   27303   27306  -27312  -27321       2   27297   27312  -27306  -27318       2
   27294   27312  -27303  -27315       2   27285   27306  -27297  -27309       2
   27279   27294  -27288  -27300       2   27261   27288  -27279  -27291       2
   27243   27276  -27264  -27282       2   27237   27240  -27255  -27273       2
   27228   27234  -27246  -27270       2   27225   27264  -27243  -27267       2
   27222   27255  -27237  -27258       2   27222   27246  -27234  -27252       2
   27219   27246  -27228  -27249       2   27216   27228  -27219  -27231       2
   27411   27414  -27420  -27429       2   27405   27420  -27414  -27426       2
   27402   27420  -27411  -27423       2   27393   27414  -27405  -27417       2
   27387   27402  -27396  -27408       2   27369   27396  -27387  -27399       2
   27351   27384  -27372  -27390       2   27345   27348  -27363  -27381       2
   27336   27342  -27354  -27378       2   27333   27372  -27351  -27375       2
   27330   27363  -27345  -27366       2   27330   27354  -27342  -27360       2
   27327   27354  -27336  -27357       2   27324   27336  -27327  -27339       2
   27519   27522  -27528  -27537       2   27513   27528  -27522  -27534       2
   27510   27528  -27519  -27531       2   27501   27522  -27513  -27525       2
   27495   27510  -27504  -27516       2   27477   27504  -27495  -27507       2
   27459   27492  -27480  -27498       2   27453   27456  -27471  -27489       2
   27444   27450  -27462  -27486       2   27441   27480  -27459  -27483       2
   27438   27471  -27453  -27474       2   27438   27462  -27450  -27468       2
   27435   27462  -27444  -27465       2   27432   27444  -27435  -27447       2
   27627   27630  -27636  -27645       2   27621   27636  -27630  -27642       2
   27618   27636  -27627  -27639       2   27609   27630  -27621  -27633       2
   27603   27618  -27612  -27624       2   27585   27612  -27603  -27615       2
   27567   27600  -27588  -27606       2   27561   27564  -27579  -27597       2
   27552   27558  -27570  -27594       2   27549   27588  -27567  -27591       2
   27546   27579  -27561  -27582       2   27546   27570  -27558  -27576       2
   27543   27570  -27552  -27573       2   27540   27552  -27543  -27555       2
   27735   27738  -27744  -27753       2   27729   27744  -27738  -27750       2
   27726   27744  -27735  -27747       2   27717   27738  -27729  -27741       2
   27711   27726  -27720  -27732       2   27693   27720  -27711  -27723       2
   27675   27708  -27696  -27714       2   27669   27672  -27687  -27705       2
   27660   27666  -27678  -27702       2   27657   27696  -27675  -27699       2
   27654   27687  -27669  -27690       2   27654   27678  -27666  -27684       2
   27651   27678  -27660  -27681       2   27648   27660  -27651  -27663       2
   27843   27846  -27852  -27861       2   27837   27852  -27846  -27858       2
   27834   27852  -27843  -27855       2   27825   27846  -27837  -27849       2
   27819   27834  -27828  -27840       2   27801   27828  -27819  -27831       2
   27783   27816  -27804  -27822       2   27777   27780  -27795  -27813       2
   27768   27774  -27786  -27810       2   27765   27804  -27783  -27807       2
   27762   27795  -27777  -27798       2   27762   27786  -27774  -27792       2
   27759   27786  -27768  -27789       2   27756   27768  -27759  -27771       2
   27951   27954  -27960  -27969       2   27945   27960  -27954  -27966       2
   27942   27960  -27951  -27963       2   27933   27954  -27945  -27957       2
   27927   27942  -27936  -27948       2   27909   27936  -27927  -27939       2
   27891   27924  -27912  -27930       2   27885   27888  -27903  -27921       2
   27876   27882  -27894  -27918       2   27873   27912  -27891  -27915       2
   27870   27903  -27885  -27906       2   27870   27894  -27882  -27900       2
   27867   27894  -27876  -27897       2   27864   27876  -27867  -27879       2
   28059   28062  -28068  -28077       2   28053   28068  -28062  -28074       2
   28050   28068  -28059  -28071       2   28041   28062  -28053  -28065       2
   28035   28050  -28044  -28056       2   28017   28044  -28035  -28047       2
   27999   28032  -28020  -28038       2   27993   27996  -28011  -28029       2
   27984   27990  -28002  -28026       2   27981   28020  -27999  -28023       2
   27978   28011  -27993  -28014       2   27978   28002  -27990  -28008       2
   27975   28002  -27984  -28005       2   27972   27984  -27975  -27987       2
   28167   28170  -28176  -28185       2   28161   28176  -28170  -28182       2
   28158   28176  -28167  -28179       2   28149   28170  -28161  -28173       2
   28143   28158  -28152  -28164       2   28125   28152  -28143  -28155       2
   28107   28140  -28128  -28146       2   28101   28104  -28119  -28137       2
   28092   28098  -28110  -28134       2   28089   28128  -28107  -28131       2
   28086   28119  -28101  -28122       2   28086   28110  -28098  -28116       2
   28083   28110  -28092  -28113       2   28080   28092  -28083  -28095       2
   28275   28278  -28284  -28293       2   28269   28284  -28278  -28290       2
   28266   28284  -28275  -28287       2   28257   28278  -28269  -28281       2
   28251   28266  -28260  -28272       2   28233   28260  -28251  -28263       2
   28215   28248  -28236  -28254       2   28209   28212  -28227  -28245       2
   28200   28206  -28218  -28242       2   28197   28236  -28215  -28239       2
   28194   28227  -28209  -28230       2   28194   28218  -28206  -28224       2
   28191   28218  -28200  -28221       2   28188   28200  -28191  -28203       2
   28383   28386  -28392  -28401       2   28377   28392  -28386  -28398       2
   28374   28392  -28383  -28395       2   28365   28386  -28377  -28389       2
   28359   28374  -28368  -28380       2   28341   28368  -28359  -28371       2
   28323   28356  -28344  -28362       2   28317   28320  -28335  -28353       2
   28308   28314  -28326  -28350       2   28305   28344  -28323  -28347       2
   28302   28335  -28317  -28338       2   28302   28326  -28314  -28332       2
   28299   28326  -28308  -28329       2   28296   28308  -28299  -28311       2
   28491   28494  -28500  -28509       2   28485   28500  -28494  -28506       2
   28482   28500  -28491  -28503       2   28473   28494  -28485  -28497       2
   28467   28482  -28476  -28488       2   28449   28476  -28467  -28479       2
   28431   28464  -28452  -28470       2   28425   28428  -28443  -28461       2
   28416   28422  -28434  -28458       2   28413   28452  -28431  -28455       2
   28410   28443  -28425  -28446       2   28410   28434  -28422  -28440       2
   28407   28434  -28416  -28437       2   28404   28416  -28407  -28419       2
   28599   28602  -28608  -28617       2   28593   28608  -28602  -28614       2
   28590   28608  -28599  -28611       2   28581   28602  -28593  -28605       2
   28575   28590  -28584  -28596       2   28557   28584  -28575  -28587       2
   28539   28572  -28560  -28578       2   28533   28536  -28551  -28569       2
   28524   28530  -28542  -28566       2   28521   28560  -28539  -28563       2
   28518   28551  -28533  -28554       2   28518   28542  -28530  -28548       2
   28515   28542  -28524  -28545       2   28512   28524  -28515  -28527       2
   28707   28710  -28716  -28725       2   28701   28716  -28710  -28722       2
   28698   28716  -28707  -28719       2   28689   28710  -28701  -28713       2
   28683   28698  -28692  -28704       2   28665   28692  -28683  -28695       2
   28647   28680  -28668  -28686       2   28641   28644  -28659  -28677       2
   28632   28638  -28650  -28674       2   28629   28668  -28647  -28671       2
   28626   28659  -28641  -28662       2   28626   28650  -28638  -28656       2
   28623   28650  -28632  -28653       2   28620   28632  -28623  -28635       2
   28815   28818  -28824  -28833       2   28809   28824  -28818  -28830       2
   28806   28824  -28815  -28827       2   28797   28818  -28809  -28821       2
   28791   28806  -28800  -28812       2   28773   28800  -28791  -28803       2
   28755   28788  -28776  -28794       2   28749   28752  -28767  -28785       2
   28740   28746  -28758  -28782       2   28737   28776  -28755  -28779       2
   28734   28767  -28749  -28770       2   28734   28758  -28746  -28764       2
   28731   28758  -28740  -28761       2   28728   28740  -28731  -28743       2
   28923   28926  -28932  -28941       2   28917   28932  -28926  -28938       2
   28914   28932  -28923  -28935       2   28905   28926  -28917  -28929       2
   28899   28914  -28908  -28920       2   28881   28908  -28899  -28911       2
   28863   28896  -28884  -28902       2   28857   28860  -28875  -28893       2
   28848   28854  -28866  -28890       2   28845   28884  -28863  -28887       2
   28842   28875  -28857  -28878       2   28842   28866  -28854  -28872       2
   28839   28866  -28848  -28869       2   28836   28848  -28839  -28851       2
   29031   29034  -29040  -29049       2   29025   29040  -29034  -29046       2
   29022   29040  -29031  -29043       2   29013   29034  -29025  -29037       2
   29007   29022  -29016  -29028       2   28989   29016  -29007  -29019       2
   28971   29004  -28992  -29010       2   28965   28968  -28983  -29001       2
   28956   28962  -28974  -28998       2   28953   28992  -28971  -28995       2
   28950   28983  -28965  -28986       2   28950   28974  -28962  -28980       2
   28947   28974  -28956  -28977       2   28944   28956  -28947  -28959       2
   29139   29142  -29148  -29157       2   29133   29148  -29142  -29154       2
   29130   29148  -29139  -29151       2   29121   29142  -29133  -29145       2
   29115   29130  -29124  -29136       2   29097   29124  -29115  -29127       2
   29079   29112  -29100  -29118       2   29073   29076  -29091  -29109       2
   29064   29070  -29082  -29106       2   29061   29100  -29079  -29103       2
   29058   29091  -29073  -29094       2   29058   29082  -29070  -29088       2
   29055   29082  -29064  -29085       2   29052   29064  -29055  -29067       2
   29247   29250  -29256  -29265       2   29241   29256  -29250  -29262       2
   29238   29256  -29247  -29259       2   29229   29250  -29241  -29253       2
   29223   29238  -29232  -29244       2   29205   29232  -29223  -29235       2
   29187   29220  -29208  -29226       2   29181   29184  -29199  -29217       2
   29172   29178  -29190  -29214       2   29169   29208  -29187  -29211       2
   29166   29199  -29181  -29202       2   29166   29190  -29178  -29196       2
   29163   29190  -29172  -29193       2   29160   29172  -29163  -29175       2
   29355   29358  -29364  -29373       2   29349   29364  -29358  -29370       2
   29346   29364  -29355  -29367       2   29337   29358  -29349  -29361       2
   29331   29346  -29340  -29352       2   29313   29340  -29331  -29343       2
   29295   29328  -29316  -29334       2   29289   29292  -29307  -29325       2
   29280   29286  -29298  -29322       2   29277   29316  -29295  -29319       2
   29274   29307  -29289  -29310       2   29274   29298  -29286  -29304       2
   29271   29298  -29280  -29301       2   29268   29280  -29271  -29283       2
   29463   29466  -29472  -29481       2   29457   29472  -29466  -29478       2
   29454   29472  -29463  -29475       2   29445   29466  -29457  -29469       2
   29439   29454  -29448  -29460       2   29421   29448  -29439  -29451       2
   29403   29436  -29424  -29442       2   29397   29400  -29415  -29433       2
   29388   29394  -29406  -29430       2   29385   29424  -29403  -29427       2
   29382   29415  -29397  -29418       2   29382   29406  -29394  -29412       2
   29379   29406  -29388  -29409       2   29376   29388  -29379  -29391       2
   29571   29574  -29580  -29589       2   29565   29580  -29574  -29586       2
   29562   29580  -29571  -29583       2   29553   29574  -29565  -29577       2
   29547   29562  -29556  -29568       2   29529   29556  -29547  -29559       2
   29511   29544  -29532  -29550       2   29505   29508  -29523  -29541       2
   29496   29502  -29514  -29538       2   29493   29532  -29511  -29535       2
   29490   29523  -29505  -29526       2   29490   29514  -29502  -29520       2
   29487   29514  -29496  -29517       2   29484   29496  -29487  -29499       2
   29679   29682  -29688  -29697       2   29673   29688  -29682  -29694       2
   29670   29688  -29679  -29691       2   29661   29682  -29673  -29685       2
   29655   29670  -29664  -29676       2   29637   29664  -29655  -29667       2
   29619   29652  -29640  -29658       2   29613   29616  -29631  -29649       2
   29604   29610  -29622  -29646       2   29601   29640  -29619  -29643       2
   29598   29631  -29613  -29634       2   29598   29622  -29610  -29628       2
   29595   29622  -29604  -29625       2   29592   29604  -29595  -29607       2
   29787   29790  -29796  -29805       2   29781   29796  -29790  -29802       2
   29778   29796  -29787  -29799       2   29769   29790  -29781  -29793       2
   29763   29778  -29772  -29784       2   29745   29772  -29763  -29775       2
   29727   29760  -29748  -29766       2   29721   29724  -29739  -29757       2
   29712   29718  -29730  -29754       2   29709   29748  -29727  -29751       2
   29706   29739  -29721  -29742       2   29706   29730  -29718  -29736       2
   29703   29730  -29712  -29733       2   29700   29712  -29703  -29715       2
   29895   29898  -29904  -29913       2   29889   29904  -29898  -29910       2
   29886   29904  -29895  -29907       2   29877   29898  -29889  -29901       2
   29871   29886  -29880  -29892       2   29853   29880  -29871  -29883       2
   29835   29868  -29856  -29874       2   29829   29832  -29847  -29865       2
   29820   29826  -29838  -29862       2   29817   29856  -29835  -29859       2
   29814   29847  -29829  -29850       2   29814   29838  -29826  -29844       2
   29811   29838  -29820  -29841       2   29808   29820  -29811  -29823       2
   30003   30006  -30012  -30021       2   29997   30012  -30006  -30018       2
   29994   30012  -30003  -30015       2   29985   30006  -29997  -30009       2
   29979   29994  -29988  -30000       2   29961   29988  -29979  -29991       2
   29943   29976  -29964  -29982       2   29937   29940  -29955  -29973       2
   29928   29934  -29946  -29970       2   29925   29964  -29943  -29967       2
   29922   29955  -29937  -29958       2   29922   29946  -29934  -29952       2
   29919   29946  -29928  -29949       2   29916   29928  -29919  -29931       2
   30111   30114  -30120  -30129       2   30105   30120  -30114  -30126       2
   30102   30120  -30111  -30123       2   30093   30114  -30105  -30117       2
   30087   30102  -30096  -30108       2   30069   30096  -30087  -30099       2
   30051   30084  -30072  -30090       2   30045   30048  -30063  -30081       2
   30036   30042  -30054  -30078       2   30033   30072  -30051  -30075       2
   30030   30063  -30045  -30066       2   30030   30054  -30042  -30060       2
   30027   30054  -30036  -30057       2   30024   30036  -30027  -30039       2
   30219   30222  -30228  -30237       2   30213   30228  -30222  -30234       2
   30210   30228  -30219  -30231       2   30201   30222  -30213  -30225       2
   30195   30210  -30204  -30216       2   30177   30204  -30195  -30207       2
   30159   30192  -30180  -30198       2   30153   30156  -30171  -30189       2
   30144   30150  -30162  -30186       2   30141   30180  -30159  -30183       2
   30138   30171  -30153  -30174       2   30138   30162  -30150  -30168       2
   30135   30162  -30144  -30165       2   30132   30144  -30135  -30147       2
   30327   30330  -30336  -30345       2   30321   30336  -30330  -30342       2
   30318   30336  -30327  -30339       2   30309   30330  -30321  -30333       2
   30303   30318  -30312  -30324       2   30285   30312  -30303  -30315       2
   30267   30300  -30288  -30306       2   30261   30264  -30279  -30297       2
   30252   30258  -30270  -30294       2   30249   30288  -30267  -30291       2
   30246   30279  -30261  -30282       2   30246   30270  -30258  -30276       2
   30243   30270  -30252  -30273       2   30240   30252  -30243  -30255       2
   30435   30438  -30444  -30453       2   30429   30444  -30438  -30450       2
   30426   30444  -30435  -30447       2   30417   30438  -30429  -30441       2
   30411   30426  -30420  -30432       2   30393   30420  -30411  -30423       2
   30375   30408  -30396  -30414       2   30369   30372  -30387  -30405       2
   30360   30366  -30378  -30402       2   30357   30396  -30375  -30399       2
   30354   30387  -30369  -30390       2   30354   30378  -30366  -30384       2
   30351   30378  -30360  -30381       2   30348   30360  -30351  -30363       2
   30543   30546  -30552  -30561       2   30537   30552  -30546  -30558       2
   30534   30552  -30543  -30555       2   30525   30546  -30537  -30549       2
   30519   30534  -30528  -30540       2   30501   30528  -30519  -30531       2
   30483   30516  -30504  -30522       2   30477   30480  -30495  -30513       2
   30468   30474  -30486  -30510       2   30465   30504  -30483  -30507       2
   30462   30495  -30477  -30498       2   30462   30486  -30474  -30492       2
   30459   30486  -30468  -30489       2   30456   30468  -30459  -30471       2
   30651   30654  -30660  -30669       2   30645   30660  -30654  -30666       2
   30642   30660  -30651  -30663       2   30633   30654  -30645  -30657       2
   30627   30642  -30636  -30648       2   30609   30636  -30627  -30639       2
   30591   30624  -30612  -30630       2   30585   30588  -30603  -30621       2
   30576   30582  -30594  -30618       2   30573   30612  -30591  -30615       2
   30570   30603  -30585  -30606       2   30570   30594  -30582  -30600       2
   30567   30594  -30576  -30597       2   30564   30576  -30567  -30579       2
   30759   30762  -30768  -30777       2   30753   30768  -30762  -30774       2
   30750   30768  -30759  -30771       2   30741   30762  -30753  -30765       2
   30735   30750  -30744  -30756       2   30717   30744  -30735  -30747       2
   30699   30732  -30720  -30738       2   30693   30696  -30711  -30729       2
   30684   30690  -30702  -30726       2   30681   30720  -30699  -30723       2
   30678   30711  -30693  -30714       2   30678   30702  -30690  -30708       2
   30675   30702  -30684  -30705       2   30672   30684  -30675  -30687       2
   30867   30870  -30876  -30885       2   30861   30876  -30870  -30882       2
   30858   30876  -30867  -30879       2   30849   30870  -30861  -30873       2
   30843   30858  -30852  -30864       2   30825   30852  -30843  -30855       2
   30807   30840  -30828  -30846       2   30801   30804  -30819  -30837       2
   30792   30798  -30810  -30834       2   30789   30828  -30807  -30831       2
   30786   30819  -30801  -30822       2   30786   30810  -30798  -30816       2
   30783   30810  -30792  -30813       2   30780   30792  -30783  -30795       2
   30975   30978  -30984  -30993       2   30969   30984  -30978  -30990       2
   30966   30984  -30975  -30987       2   30957   30978  -30969  -30981       2
   30951   30966  -30960  -30972       2   30933   30960  -30951  -30963       2
   30915   30948  -30936  -30954       2   30909   30912  -30927  -30945       2
   30900   30906  -30918  -30942       2   30897   30936  -30915  -30939       2
   30894   30927  -30909  -30930       2   30894   30918  -30906  -30924       2
   30891   30918  -30900  -30921       2   30888   30900  -30891  -30903       2
   31083   31086  -31092  -31101       2   31077   31092  -31086  -31098       2
   31074   31092  -31083  -31095       2   31065   31086  -31077  -31089       2
   31059   31074  -31068  -31080       2   31041   31068  -31059  -31071       2
   31023   31056  -31044  -31062       2   31017   31020  -31035  -31053       2
   31008   31014  -31026  -31050       2   31005   31044  -31023  -31047       2
   31002   31035  -31017  -31038       2   31002   31026  -31014  -31032       2
   30999   31026  -31008  -31029       2   30996   31008  -30999  -31011       2
   31191   31194  -31200  -31209       2   31185   31200  -31194  -31206       2
   31182   31200  -31191  -31203       2   31173   31194  -31185  -31197       2
   31167   31182  -31176  -31188       2   31149   31176  -31167  -31179       2
   31131   31164  -31152  -31170       2   31125   31128  -31143  -31161       2
   31116   31122  -31134  -31158       2   31113   31152  -31131  -31155       2
   31110   31143  -31125  -31146       2   31110   31134  -31122  -31140       2
   31107   31134  -31116  -31137       2   31104   31116  -31107  -31119       2
   31299   31302  -31308  -31317       2   31293   31308  -31302  -31314       2
   31290   31308  -31299  -31311       2   31281   31302  -31293  -31305       2
   31275   31290  -31284  -31296       2   31257   31284  -31275  -31287       2
   31239   31272  -31260  -31278       2   31233   31236  -31251  -31269       2
   31224   31230  -31242  -31266       2   31221   31260  -31239  -31263       2
   31218   31251  -31233  -31254       2   31218   31242  -31230  -31248       2
   31215   31242  -31224  -31245       2   31212   31224  -31215  -31227       2
   31407   31410  -31416  -31425       2   31401   31416  -31410  -31422       2
   31398   31416  -31407  -31419       2   31389   31410  -31401  -31413       2
   31383   31398  -31392  -31404       2   31365   31392  -31383  -31395       2
   31347   31380  -31368  -31386       2   31341   31344  -31359  -31377       2
   31332   31338  -31350  -31374       2   31329   31368  -31347  -31371       2
   31326   31359  -31341  -31362       2   31326   31350  -31338  -31356       2
   31323   31350  -31332  -31353       2   31320   31332  -31323  -31335       2
   31515   31518  -31524  -31533       2   31509   31524  -31518  -31530       2
   31506   31524  -31515  -31527       2   31497   31518  -31509  -31521       2
   31491   31506  -31500  -31512       2   31473   31500  -31491  -31503       2
   31455   31488  -31476  -31494       2   31449   31452  -31467  -31485       2
   31440   31446  -31458  -31482       2   31437   31476  -31455  -31479       2
   31434   31467  -31449  -31470       2   31434   31458  -31446  -31464       2
   31431   31458  -31440  -31461       2   31428   31440  -31431  -31443       2
   31623   31626  -31632  -31641       2   31617   31632  -31626  -31638       2
   31614   31632  -31623  -31635       2   31605   31626  -31617  -31629       2
   31599   31614  -31608  -31620       2   31581   31608  -31599  -31611       2
   31563   31596  -31584  -31602       2   31557   31560  -31575  -31593       2
   31548   31554  -31566  -31590       2   31545   31584  -31563  -31587       2
   31542   31575  -31557  -31578       2   31542   31566  -31554  -31572       2
   31539   31566  -31548  -31569       2   31536   31548  -31539  -31551       2
   31731   31734  -31740  -31749       2   31725   31740  -31734  -31746       2
   31722   31740  -31731  -31743       2   31713   31734  -31725  -31737       2
   31707   31722  -31716  -31728       2   31689   31716  -31707  -31719       2
   31671   31704  -31692  -31710       2   31665   31668  -31683  -31701       2
   31656   31662  -31674  -31698       2   31653   31692  -31671  -31695       2
   31650   31683  -31665  -31686       2   31650   31674  -31662  -31680       2
   31647   31674  -31656  -31677       2   31644   31656  -31647  -31659       2
   31839   31842  -31848  -31857       2   31833   31848  -31842  -31854       2
   31830   31848  -31839  -31851       2   31821   31842  -31833  -31845       2
   31815   31830  -31824  -31836       2   31797   31824  -31815  -31827       2
   31779   31812  -31800  -31818       2   31773   31776  -31791  -31809       2
   31764   31770  -31782  -31806       2   31761   31800  -31779  -31803       2
   31758   31791  -31773  -31794       2   31758   31782  -31770  -31788       2
   31755   31782  -31764  -31785       2   31752   31764  -31755  -31767       2
   31947   31950  -31956  -31965       2   31941   31956  -31950  -31962       2
   31938   31956  -31947  -31959       2   31929   31950  -31941  -31953       2
   31923   31938  -31932  -31944       2   31905   31932  -31923  -31935       2
   31887   31920  -31908  -31926       2   31881   31884  -31899  -31917       2
   31872   31878  -31890  -31914       2   31869   31908  -31887  -31911       2
   31866   31899  -31881  -31902       2   31866   31890  -31878  -31896       2
   31863   31890  -31872  -31893       2   31860   31872  -31863  -31875       2
   32055   32058  -32064  -32073       2   32049   32064  -32058  -32070       2
   32046   32064  -32055  -32067       2   32037   32058  -32049  -32061       2
   32031   32046  -32040  -32052       2   32013   32040  -32031  -32043       2
   31995   32028  -32016  -32034       2   31989   31992  -32007  -32025       2
   31980   31986  -31998  -32022       2   31977   32016  -31995  -32019       2
   31974   32007  -31989  -32010       2   31974   31998  -31986  -32004       2
   31971   31998  -31980  -32001       2   31968   31980  -31971  -31983       2
   32163   32166  -32172  -32181       2   32157   32172  -32166  -32178       2
   32154   32172  -32163  -32175       2   32145   32166  -32157  -32169       2
   32139   32154  -32148  -32160       2   32121   32148  -32139  -32151       2
   32103   32136  -32124  -32142       2   32097   32100  -32115  -32133       2
   32088   32094  -32106  -32130       2   32085   32124  -32103  -32127       2
   32082   32115  -32097  -32118       2   32082   32106  -32094  -32112       2
   32079   32106  -32088  -32109       2   32076   32088  -32079  -32091       2
   32271   32274  -32280  -32289       2   32265   32280  -32274  -32286       2
   32262   32280  -32271  -32283       2   32253   32274  -32265  -32277       2
   32247   32262  -32256  -32268       2   32229   32256  -32247  -32259       2
   32211   32244  -32232  -32250       2   32205   32208  -32223  -32241       2
   32196   32202  -32214  -32238       2   32193   32232  -32211  -32235       2
   32190   32223  -32205  -32226       2   32190   32214  -32202  -32220       2
   32187   32214  -32196  -32217       2   32184   32196  -32187  -32199       2
   32379   32382  -32388  -32397       2   32373   32388  -32382  -32394       2
   32370   32388  -32379  -32391       2   32361   32382  -32373  -32385       2
   32355   32370  -32364  -32376       2   32337   32364  -32355  -32367       2
   32319   32352  -32340  -32358       2   32313   32316  -32331  -32349       2
   32304   32310  -32322  -32346       2   32301   32340  -32319  -32343       2
   32298   32331  -32313  -32334       2   32298   32322  -32310  -32328       2
   32295   32322  -32304  -32325       2   32292   32304  -32295  -32307       2
   32487   32490  -32496  -32505       2   32481   32496  -32490  -32502       2
   32478   32496  -32487  -32499       2   32469   32490  -32481  -32493       2
   32463   32478  -32472  -32484       2   32445   32472  -32463  -32475       2
   32427   32460  -32448  -32466       2   32421   32424  -32439  -32457       2
   32412   32418  -32430  -32454       2   32409   32448  -32427  -32451       2
   32406   32439  -32421  -32442       2   32406   32430  -32418  -32436       2
   32403   32430  -32412  -32433       2   32400   32412  -32403  -32415       2
   32595   32598  -32604  -32613       2   32589   32604  -32598  -32610       2
   32586   32604  -32595  -32607       2   32577   32598  -32589  -32601       2
   32571   32586  -32580  -32592       2   32553   32580  -32571  -32583       2
   32535   32568  -32556  -32574       2   32529   32532  -32547  -32565       2
   32520   32526  -32538  -32562       2   32517   32556  -32535  -32559       2
   32514   32547  -32529  -32550       2   32514   32538  -32526  -32544       2
   32511   32538  -32520  -32541       2   32508   32520  -32511  -32523       2
   32703   32706  -32712  -32721       2   32697   32712  -32706  -32718       2
   32694   32712  -32703  -32715       2   32685   32706  -32697  -32709       2
   32679   32694  -32688  -32700       2   32661   32688  -32679  -32691       2
   32643   32676  -32664  -32682       2   32637   32640  -32655  -32673       2
   32628   32634  -32646  -32670       2   32625   32664  -32643  -32667       2
   32622   32655  -32637  -32658       2   32622   32646  -32634  -32652       2
   32619   32646  -32628  -32649       2   32616   32628  -32619  -32631       2
   32811   32814  -32820  -32829       2   32805   32820  -32814  -32826       2
   32802   32820  -32811  -32823       2   32793   32814  -32805  -32817       2
   32787   32802  -32796  -32808       2   32769   32796  -32787  -32799       2
   32751   32784  -32772  -32790       2   32745   32748  -32763  -32781       2
   32736   32742  -32754  -32778       2   32733   32772  -32751  -32775       2
   32730   32763  -32745  -32766       2   32730   32754  -32742  -32760       2
   32727   32754  -32736  -32757       2   32724   32736  -32727  -32739       2
   32919   32922  -32928  -32937       2   32913   32928  -32922  -32934       2
   32910   32928  -32919  -32931       2   32901   32922  -32913  -32925       2
   32895   32910  -32904  -32916       2   32877   32904  -32895  -32907       2
   32859   32892  -32880  -32898       2   32853   32856  -32871  -32889       2
   32844   32850  -32862  -32886       2   32841   32880  -32859  -32883       2
   32838   32871  -32853  -32874       2   32838   32862  -32850  -32868       2
   32835   32862  -32844  -32865       2   32832   32844  -32835  -32847       2
   33027   33030  -33036  -33045       2   33021   33036  -33030  -33042       2
   33018   33036  -33027  -33039       2   33009   33030  -33021  -33033       2
   33003   33018  -33012  -33024       2   32985   33012  -33003  -33015       2
   32967   33000  -32988  -33006       2   32961   32964  -32979  -32997       2
   32952   32958  -32970  -32994       2   32949   32988  -32967  -32991       2
   32946   32979  -32961  -32982       2   32946   32970  -32958  -32976       2
   32943   32970  -32952  -32973       2   32940   32952  -32943  -32955       2
   33135   33138  -33144  -33153       2   33129   33144  -33138  -33150       2
   33126   33144  -33135  -33147       2   33117   33138  -33129  -33141       2
   33111   33126  -33120  -33132       2   33093   33120  -33111  -33123       2
   33075   33108  -33096  -33114       2   33069   33072  -33087  -33105       2
   33060   33066  -33078  -33102       2   33057   33096  -33075  -33099       2
   33054   33087  -33069  -33090       2   33054   33078  -33066  -33084       2
   33051   33078  -33060  -33081       2   33048   33060  -33051  -33063       2
   33243   33246  -33252  -33261       2   33237   33252  -33246  -33258       2
   33234   33252  -33243  -33255       2   33225   33246  -33237  -33249       2
   33219   33234  -33228  -33240       2   33201   33228  -33219  -33231       2
   33183   33216  -33204  -33222       2   33177   33180  -33195  -33213       2
   33168   33174  -33186  -33210       2   33165   33204  -33183  -33207       2
   33162   33195  -33177  -33198       2   33162   33186  -33174  -33192       2
   33159   33186  -33168  -33189       2   33156   33168  -33159  -33171       2
   33351   33354  -33360  -33369       2   33345   33360  -33354  -33366       2
   33342   33360  -33351  -33363       2   33333   33354  -33345  -33357       2
   33327   33342  -33336  -33348       2   33309   33336  -33327  -33339       2
   33291   33324  -33312  -33330       2   33285   33288  -33303  -33321       2
   33276   33282  -33294  -33318       2   33273   33312  -33291  -33315       2
   33270   33303  -33285  -33306       2   33270   33294  -33282  -33300       2
   33267   33294  -33276  -33297       2   33264   33276  -33267  -33279       2
   33459   33462  -33468  -33477       2   33453   33468  -33462  -33474       2
   33450   33468  -33459  -33471       2   33441   33462  -33453  -33465       2
   33435   33450  -33444  -33456       2   33417   33444  -33435  -33447       2
   33399   33432  -33420  -33438       2   33393   33396  -33411  -33429       2
   33384   33390  -33402  -33426       2   33381   33420  -33399  -33423       2
   33378   33411  -33393  -33414       2   33378   33402  -33390  -33408       2
   33375   33402  -33384  -33405       2   33372   33384  -33375  -33387       2
   33567   33570  -33576  -33585       2   33561   33576  -33570  -33582       2
   33558   33576  -33567  -33579       2   33549   33570  -33561  -33573       2
   33543   33558  -33552  -33564       2   33525   33552  -33543  -33555       2
   33507   33540  -33528  -33546       2   33501   33504  -33519  -33537       2
   33492   33498  -33510  -33534       2   33489   33528  -33507  -33531       2
   33486   33519  -33501  -33522       2   33486   33510  -33498  -33516       2
   33483   33510  -33492  -33513       2   33480   33492  -33483  -33495       2
   33675   33678  -33684  -33693       2   33669   33684  -33678  -33690       2
   33666   33684  -33675  -33687       2   33657   33678  -33669  -33681       2
   33651   33666  -33660  -33672       2   33633   33660  -33651  -33663       2
   33615   33648  -33636  -33654       2   33609   33612  -33627  -33645       2
   33600   33606  -33618  -33642       2   33597   33636  -33615  -33639       2
   33594   33627  -33609  -33630       2   33594   33618  -33606  -33624       2
   33591   33618  -33600  -33621       2   33588   33600  -33591  -33603       2
   33783   33786  -33792  -33801       2   33777   33792  -33786  -33798       2
   33774   33792  -33783  -33795       2   33765   33786  -33777  -33789       2
   33759   33774  -33768  -33780       2   33741   33768  -33759  -33771       2
   33723   33756  -33744  -33762       2   33717   33720  -33735  -33753       2
   33708   33714  -33726  -33750       2   33705   33744  -33723  -33747       2
   33702   33735  -33717  -33738       2   33702   33726  -33714  -33732       2
   33699   33726  -33708  -33729       2   33696   33708  -33699  -33711       2
   33891   33894  -33900  -33909       2   33885   33900  -33894  -33906       2
   33882   33900  -33891  -33903       2   33873   33894  -33885  -33897       2
   33867   33882  -33876  -33888       2   33849   33876  -33867  -33879       2
   33831   33864  -33852  -33870       2   33825   33828  -33843  -33861       2
   33816   33822  -33834  -33858       2   33813   33852  -33831  -33855       2
   33810   33843  -33825  -33846       2   33810   33834  -33822  -33840       2
   33807   33834  -33816  -33837       2   33804   33816  -33807  -33819       2
   33999   34002  -34008  -34017       2   33993   34008  -34002  -34014       2
   33990   34008  -33999  -34011       2   33981   34002  -33993  -34005       2
   33975   33990  -33984  -33996       2   33957   33984  -33975  -33987       2
   33939   33972  -33960  -33978       2   33933   33936  -33951  -33969       2
   33924   33930  -33942  -33966       2   33921   33960  -33939  -33963       2
   33918   33951  -33933  -33954       2   33918   33942  -33930  -33948       2
   33915   33942  -33924  -33945       2   33912   33924  -33915  -33927       2
   34107   34110  -34116  -34125       2   34101   34116  -34110  -34122       2
   34098   34116  -34107  -34119       2   34089   34110  -34101  -34113       2
   34083   34098  -34092  -34104       2   34065   34092  -34083  -34095       2
   34047   34080  -34068  -34086       2   34041   34044  -34059  -34077       2
   34032   34038  -34050  -34074       2   34029   34068  -34047  -34071       2
   34026   34059  -34041  -34062       2   34026   34050  -34038  -34056       2
   34023   34050  -34032  -34053       2   34020   34032  -34023  -34035       2
   34215   34218  -34224  -34233       2   34209   34224  -34218  -34230       2
   34206   34224  -34215  -34227       2   34197   34218  -34209  -34221       2
   34191   34206  -34200  -34212       2   34173   34200  -34191  -34203       2
   34155   34188  -34176  -34194       2   34149   34152  -34167  -34185       2
   34140   34146  -34158  -34182       2   34137   34176  -34155  -34179       2
   34134   34167  -34149  -34170       2   34134   34158  -34146  -34164       2
   34131   34158  -34140  -34161       2   34128   34140  -34131  -34143       2
   34323   34326  -34332  -34341       2   34317   34332  -34326  -34338       2
   34314   34332  -34323  -34335       2   34305   34326  -34317  -34329       2
   34299   34314  -34308  -34320       2   34281   34308  -34299  -34311       2
   34263   34296  -34284  -34302       2   34257   34260  -34275  -34293       2
   34248   34254  -34266  -34290       2   34245   34284  -34263  -34287       2
   34242   34275  -34257  -34278       2   34242   34266  -34254  -34272       2
   34239   34266  -34248  -34269       2   34236   34248  -34239  -34251       2
   34431   34434  -34440  -34449       2   34425   34440  -34434  -34446       2
   34422   34440  -34431  -34443       2   34413   34434  -34425  -34437       2
   34407   34422  -34416  -34428       2   34389   34416  -34407  -34419       2
   34371   34404  -34392  -34410       2   34365   34368  -34383  -34401       2
   34356   34362  -34374  -34398       2   34353   34392  -34371  -34395       2
   34350   34383  -34365  -34386       2   34350   34374  -34362  -34380       2
   34347   34374  -34356  -34377       2   34344   34356  -34347  -34359       2
   34539   34542  -34548  -34557       2   34533   34548  -34542  -34554       2
   34530   34548  -34539  -34551       2   34521   34542  -34533  -34545       2
   34515   34530  -34524  -34536       2   34497   34524  -34515  -34527       2
   34479   34512  -34500  -34518       2   34473   34476  -34491  -34509       2
   34464   34470  -34482  -34506       2   34461   34500  -34479  -34503       2
   34458   34491  -34473  -34494       2   34458   34482  -34470  -34488       2
   34455   34482  -34464  -34485       2   34452   34464  -34455  -34467       2
   34647   34650  -34656  -34665       2   34641   34656  -34650  -34662       2
   34638   34656  -34647  -34659       2   34629   34650  -34641  -34653       2
   34623   34638  -34632  -34644       2   34605   34632  -34623  -34635       2
   34587   34620  -34608  -34626       2   34581   34584  -34599  -34617       2
   34572   34578  -34590  -34614       2   34569   34608  -34587  -34611       2
   34566   34599  -34581  -34602       2   34566   34590  -34578  -34596       2
   34563   34590  -34572  -34593       2   34560   34572  -34563  -34575       2
   34755   34758  -34764  -34773       2   34749   34764  -34758  -34770       2
   34746   34764  -34755  -34767       2   34737   34758  -34749  -34761       2
   34731   34746  -34740  -34752       2   34713   34740  -34731  -34743       2
   34695   34728  -34716  -34734       2   34689   34692  -34707  -34725       2
   34680   34686  -34698  -34722       2   34677   34716  -34695  -34719       2
   34674   34707  -34689  -34710       2   34674   34698  -34686  -34704       2
   34671   34698  -34680  -34701       2   34668   34680  -34671  -34683       2
   34863   34866  -34872  -34881       2   34857   34872  -34866  -34878       2
   34854   34872  -34863  -34875       2   34845   34866  -34857  -34869       2
   34839   34854  -34848  -34860       2   34821   34848  -34839  -34851       2
   34803   34836  -34824  -34842       2   34797   34800  -34815  -34833       2
   34788   34794  -34806  -34830       2   34785   34824  -34803  -34827       2
   34782   34815  -34797  -34818       2   34782   34806  -34794  -34812       2
   34779   34806  -34788  -34809       2   34776   34788  -34779  -34791       2
   34971   34974  -34980  -34989       2   34965   34980  -34974  -34986       2
   34962   34980  -34971  -34983       2   34953   34974  -34965  -34977       2
   34947   34962  -34956  -34968       2   34929   34956  -34947  -34959       2
   34911   34944  -34932  -34950       2   34905   34908  -34923  -34941       2
   34896   34902  -34914  -34938       2   34893   34932  -34911  -34935       2
   34890   34923  -34905  -34926       2   34890   34914  -34902  -34920       2
   34887   34914  -34896  -34917       2   34884   34896  -34887  -34899       2
   35079   35082  -35088  -35097       2   35073   35088  -35082  -35094       2
   35070   35088  -35079  -35091       2   35061   35082  -35073  -35085       2
   35055   35070  -35064  -35076       2   35037   35064  -35055  -35067       2
   35019   35052  -35040  -35058       2   35013   35016  -35031  -35049       2
   35004   35010  -35022  -35046       2   35001   35040  -35019  -35043       2
   34998   35031  -35013  -35034       2   34998   35022  -35010  -35028       2
   34995   35022  -35004  -35025       2   34992   35004  -34995  -35007       2
   35187   35190  -35196  -35205       2   35181   35196  -35190  -35202       2
   35178   35196  -35187  -35199       2   35169   35190  -35181  -35193       2
   35163   35178  -35172  -35184       2   35145   35172  -35163  -35175       2
   35127   35160  -35148  -35166       2   35121   35124  -35139  -35157       2
   35112   35118  -35130  -35154       2   35109   35148  -35127  -35151       2
   35106   35139  -35121  -35142       2   35106   35130  -35118  -35136       2
   35103   35130  -35112  -35133       2   35100   35112  -35103  -35115       2
   35295   35298  -35304  -35313       2   35289   35304  -35298  -35310       2
   35286   35304  -35295  -35307       2   35277   35298  -35289  -35301       2
   35271   35286  -35280  -35292       2   35253   35280  -35271  -35283       2
   35235   35268  -35256  -35274       2   35229   35232  -35247  -35265       2
   35220   35226  -35238  -35262       2   35217   35256  -35235  -35259       2
   35214   35247  -35229  -35250       2   35214   35238  -35226  -35244       2
   35211   35238  -35220  -35241       2   35208   35220  -35211  -35223       2
   35403   35406  -35412  -35421       2   35397   35412  -35406  -35418       2
   35394   35412  -35403  -35415       2   35385   35406  -35397  -35409       2
   35379   35394  -35388  -35400       2   35361   35388  -35379  -35391       2
   35343   35376  -35364  -35382       2   35337   35340  -35355  -35373       2
   35328   35334  -35346  -35370       2   35325   35364  -35343  -35367       2
   35322   35355  -35337  -35358       2   35322   35346  -35334  -35352       2
   35319   35346  -35328  -35349       2   35316   35328  -35319  -35331       2
   35511   35514  -35520  -35529       2   35505   35520  -35514  -35526       2
   35502   35520  -35511  -35523       2   35493   35514  -35505  -35517       2
   35487   35502  -35496  -35508       2   35469   35496  -35487  -35499       2
   35451   35484  -35472  -35490       2   35445   35448  -35463  -35481       2
   35436   35442  -35454  -35478       2   35433   35472  -35451  -35475       2
   35430   35463  -35445  -35466       2   35430   35454  -35442  -35460       2
   35427   35454  -35436  -35457       2   35424   35436  -35427  -35439       2
   35619   35622  -35628  -35637       2   35613   35628  -35622  -35634       2
   35610   35628  -35619  -35631       2   35601   35622  -35613  -35625       2
   35595   35610  -35604  -35616       2   35577   35604  -35595  -35607       2
   35559   35592  -35580  -35598       2   35553   35556  -35571  -35589       2
   35544   35550  -35562  -35586       2   35541   35580  -35559  -35583       2
   35538   35571  -35553  -35574       2   35538   35562  -35550  -35568       2
   35535   35562  -35544  -35565       2   35532   35544  -35535  -35547       2
   35727   35730  -35736  -35745       2   35721   35736  -35730  -35742       2
   35718   35736  -35727  -35739       2   35709   35730  -35721  -35733       2
   35703   35718  -35712  -35724       2   35685   35712  -35703  -35715       2
   35667   35700  -35688  -35706       2   35661   35664  -35679  -35697       2
   35652   35658  -35670  -35694       2   35649   35688  -35667  -35691       2
   35646   35679  -35661  -35682       2   35646   35670  -35658  -35676       2
   35643   35670  -35652  -35673       2   35640   35652  -35643  -35655       2
   35835   35838  -35844  -35853       2   35829   35844  -35838  -35850       2
   35826   35844  -35835  -35847       2   35817   35838  -35829  -35841       2
   35811   35826  -35820  -35832       2   35793   35820  -35811  -35823       2
   35775   35808  -35796  -35814       2   35769   35772  -35787  -35805       2
   35760   35766  -35778  -35802       2   35757   35796  -35775  -35799       2
   35754   35787  -35769  -35790       2   35754   35778  -35766  -35784       2
   35751   35778  -35760  -35781       2   35748   35760  -35751  -35763       2
   35943   35946  -35952  -35961       2   35937   35952  -35946  -35958       2
   35934   35952  -35943  -35955       2   35925   35946  -35937  -35949       2
   35919   35934  -35928  -35940       2   35901   35928  -35919  -35931       2
   35883   35916  -35904  -35922       2   35877   35880  -35895  -35913       2
   35868   35874  -35886  -35910       2   35865   35904  -35883  -35907       2
   35862   35895  -35877  -35898       2   35862   35886  -35874  -35892       2
   35859   35886  -35868  -35889       2   35856   35868  -35859  -35871       2
   36051   36054  -36060  -36069       2   36045   36060  -36054  -36066       2
   36042   36060  -36051  -36063       2   36033   36054  -36045  -36057       2
   36027   36042  -36036  -36048       2   36009   36036  -36027  -36039       2
   35991   36024  -36012  -36030       2   35985   35988  -36003  -36021       2
   35976   35982  -35994  -36018       2   35973   36012  -35991  -36015       2
   35970   36003  -35985  -36006       2   35970   35994  -35982  -36000       2
   35967   35994  -35976  -35997       2   35964   35976  -35967  -35979       2
   36159   36162  -36168  -36177       2   36153   36168  -36162  -36174       2
   36150   36168  -36159  -36171       2   36141   36162  -36153  -36165       2
   36135   36150  -36144  -36156       2   36117   36144  -36135  -36147       2
   36099   36132  -36120  -36138       2   36093   36096  -36111  -36129       2
   36084   36090  -36102  -36126       2   36081   36120  -36099  -36123       2
   36078   36111  -36093  -36114       2   36078   36102  -36090  -36108       2
   36075   36102  -36084  -36105       2   36072   36084  -36075  -36087       2
   36267   36270  -36276  -36285       2   36261   36276  -36270  -36282       2
   36258   36276  -36267  -36279       2   36249   36270  -36261  -36273       2
   36243   36258  -36252  -36264       2   36225   36252  -36243  -36255       2
   36207   36240  -36228  -36246       2   36201   36204  -36219  -36237       2
   36192   36198  -36210  -36234       2   36189   36228  -36207  -36231       2
   36186   36219  -36201  -36222       2   36186   36210  -36198  -36216       2
   36183   36210  -36192  -36213       2   36180   36192  -36183  -36195       2
   36375   36378  -36384  -36393       2   36369   36384  -36378  -36390       2
   36366   36384  -36375  -36387       2   36357   36378  -36369  -36381       2
   36351   36366  -36360  -36372       2   36333   36360  -36351  -36363       2
   36315   36348  -36336  -36354       2   36309   36312  -36327  -36345       2
   36300   36306  -36318  -36342       2   36297   36336  -36315  -36339       2
   36294   36327  -36309  -36330       2   36294   36318  -36306  -36324       2
   36291   36318  -36300  -36321       2   36288   36300  -36291  -36303       2
   36483   36486  -36492  -36501       2   36477   36492  -36486  -36498       2
   36474   36492  -36483  -36495       2   36465   36486  -36477  -36489       2
   36459   36474  -36468  -36480       2   36441   36468  -36459  -36471       2
   36423   36456  -36444  -36462       2   36417   36420  -36435  -36453       2
   36408   36414  -36426  -36450       2   36405   36444  -36423  -36447       2
   36402   36435  -36417  -36438       2   36402   36426  -36414  -36432       2
   36399   36426  -36408  -36429       2   36396   36408  -36399  -36411       2
   36591   36594  -36600  -36609       2   36585   36600  -36594  -36606       2
   36582   36600  -36591  -36603       2   36573   36594  -36585  -36597       2
   36567   36582  -36576  -36588       2   36549   36576  -36567  -36579       2
   36531   36564  -36552  -36570       2   36525   36528  -36543  -36561       2
   36516   36522  -36534  -36558       2   36513   36552  -36531  -36555       2
   36510   36543  -36525  -36546       2   36510   36534  -36522  -36540       2
   36507   36534  -36516  -36537       2   36504   36516  -36507  -36519       2
   36699   36702  -36708  -36717       2   36693   36708  -36702  -36714       2
   36690   36708  -36699  -36711       2   36681   36702  -36693  -36705       2
   36675   36690  -36684  -36696       2   36657   36684  -36675  -36687       2
   36639   36672  -36660  -36678       2   36633   36636  -36651  -36669       2
   36624   36630  -36642  -36666       2   36621   36660  -36639  -36663       2
   36618   36651  -36633  -36654       2   36618   36642  -36630  -36648       2
   36615   36642  -36624  -36645       2   36612   36624  -36615  -36627       2
   36807   36810  -36816  -36825       2   36801   36816  -36810  -36822       2
   36798   36816  -36807  -36819       2   36789   36810  -36801  -36813       2
   36783   36798  -36792  -36804       2   36765   36792  -36783  -36795       2
   36747   36780  -36768  -36786       2   36741   36744  -36759  -36777       2
   36732   36738  -36750  -36774       2   36729   36768  -36747  -36771       2
   36726   36759  -36741  -36762       2   36726   36750  -36738  -36756       2
   36723   36750  -36732  -36753       2   36720   36732  -36723  -36735       2
   36915   36918  -36924  -36933       2   36909   36924  -36918  -36930       2
   36906   36924  -36915  -36927       2   36897   36918  -36909  -36921       2
   36891   36906  -36900  -36912       2   36873   36900  -36891  -36903       2
   36855   36888  -36876  -36894       2   36849   36852  -36867  -36885       2
   36840   36846  -36858  -36882       2   36837   36876  -36855  -36879       2
   36834   36867  -36849  -36870       2   36834   36858  -36846  -36864       2
   36831   36858  -36840  -36861       2   36828   36840  -36831  -36843       2
   37023   37026  -37032  -37041       2   37017   37032  -37026  -37038       2
   37014   37032  -37023  -37035       2   37005   37026  -37017  -37029       2
   36999   37014  -37008  -37020       2   36981   37008  -36999  -37011       2
   36963   36996  -36984  -37002       2   36957   36960  -36975  -36993       2
   36948   36954  -36966  -36990       2   36945   36984  -36963  -36987       2
   36942   36975  -36957  -36978       2   36942   36966  -36954  -36972       2
   36939   36966  -36948  -36969       2   36936   36948  -36939  -36951       2
   37131   37134  -37140  -37149       2   37125   37140  -37134  -37146       2
   37122   37140  -37131  -37143       2   37113   37134  -37125  -37137       2
   37107   37122  -37116  -37128       2   37089   37116  -37107  -37119       2
   37071   37104  -37092  -37110       2   37065   37068  -37083  -37101       2
   37056   37062  -37074  -37098       2   37053   37092  -37071  -37095       2
   37050   37083  -37065  -37086       2   37050   37074  -37062  -37080       2
   37047   37074  -37056  -37077       2   37044   37056  -37047  -37059       2
   37239   37242  -37248  -37257       2   37233   37248  -37242  -37254       2
   37230   37248  -37239  -37251       2   37221   37242  -37233  -37245       2
   37215   37230  -37224  -37236       2   37197   37224  -37215  -37227       2
   37179   37212  -37200  -37218       2   37173   37176  -37191  -37209       2
   37164   37170  -37182  -37206       2   37161   37200  -37179  -37203       2
   37158   37191  -37173  -37194       2   37158   37182  -37170  -37188       2
   37155   37182  -37164  -37185       2   37152   37164  -37155  -37167       2
   37347   37350  -37356  -37365       2   37341   37356  -37350  -37362       2
   37338   37356  -37347  -37359       2   37329   37350  -37341  -37353       2
   37323   37338  -37332  -37344       2   37305   37332  -37323  -37335       2
   37287   37320  -37308  -37326       2   37281   37284  -37299  -37317       2
   37272   37278  -37290  -37314       2   37269   37308  -37287  -37311       2
   37266   37299  -37281  -37302       2   37266   37290  -37278  -37296       2
   37263   37290  -37272  -37293       2   37260   37272  -37263  -37275       2
   37455   37458  -37464  -37473       2   37449   37464  -37458  -37470       2
   37446   37464  -37455  -37467       2   37437   37458  -37449  -37461       2
   37431   37446  -37440  -37452       2   37413   37440  -37431  -37443       2
   37395   37428  -37416  -37434       2   37389   37392  -37407  -37425       2
   37380   37386  -37398  -37422       2   37377   37416  -37395  -37419       2
   37374   37407  -37389  -37410       2   37374   37398  -37386  -37404       2
   37371   37398  -37380  -37401       2   37368   37380  -37371  -37383       2
   37563   37566  -37572  -37581       2   37557   37572  -37566  -37578       2
   37554   37572  -37563  -37575       2   37545   37566  -37557  -37569       2
   37539   37554  -37548  -37560       2   37521   37548  -37539  -37551       2
   37503   37536  -37524  -37542       2   37497   37500  -37515  -37533       2
   37488   37494  -37506  -37530       2   37485   37524  -37503  -37527       2
   37482   37515  -37497  -37518       2   37482   37506  -37494  -37512       2
   37479   37506  -37488  -37509       2   37476   37488  -37479  -37491       2
   37671   37674  -37680  -37689       2   37665   37680  -37674  -37686       2
   37662   37680  -37671  -37683       2   37653   37674  -37665  -37677       2
   37647   37662  -37656  -37668       2   37629   37656  -37647  -37659       2
   37611   37644  -37632  -37650       2   37605   37608  -37623  -37641       2
   37596   37602  -37614  -37638       2   37593   37632  -37611  -37635       2
   37590   37623  -37605  -37626       2   37590   37614  -37602  -37620       2
   37587   37614  -37596  -37617       2   37584   37596  -37587  -37599       2
   37779   37782  -37788  -37797       2   37773   37788  -37782  -37794       2
   37770   37788  -37779  -37791       2   37761   37782  -37773  -37785       2
   37755   37770  -37764  -37776       2   37737   37764  -37755  -37767       2
   37719   37752  -37740  -37758       2   37713   37716  -37731  -37749       2
   37704   37710  -37722  -37746       2   37701   37740  -37719  -37743       2
   37698   37731  -37713  -37734       2   37698   37722  -37710  -37728       2
   37695   37722  -37704  -37725       2   37692   37704  -37695  -37707       2
   37887   37890  -37896  -37905       2   37881   37896  -37890  -37902       2
   37878   37896  -37887  -37899       2   37869   37890  -37881  -37893       2
   37863   37878  -37872  -37884       2   37845   37872  -37863  -37875       2
   37827   37860  -37848  -37866       2   37821   37824  -37839  -37857       2
   37812   37818  -37830  -37854       2   37809   37848  -37827  -37851       2
   37806   37839  -37821  -37842       2   37806   37830  -37818  -37836       2
   37803   37830  -37812  -37833       2   37800   37812  -37803  -37815       2
   37995   37998  -38004  -38013       2   37989   38004  -37998  -38010       2
   37986   38004  -37995  -38007       2   37977   37998  -37989  -38001       2
   37971   37986  -37980  -37992       2   37953   37980  -37971  -37983       2
   37935   37968  -37956  -37974       2   37929   37932  -37947  -37965       2
   37920   37926  -37938  -37962       2   37917   37956  -37935  -37959       2
   37914   37947  -37929  -37950       2   37914   37938  -37926  -37944       2
   37911   37938  -37920  -37941       2   37908   37920  -37911  -37923       2
   38103   38106  -38112  -38121       2   38097   38112  -38106  -38118       2
   38094   38112  -38103  -38115       2   38085   38106  -38097  -38109       2
   38079   38094  -38088  -38100       2   38061   38088  -38079  -38091       2
   38043   38076  -38064  -38082       2   38037   38040  -38055  -38073       2
   38028   38034  -38046  -38070       2   38025   38064  -38043  -38067       2
   38022   38055  -38037  -38058       2   38022   38046  -38034  -38052       2
   38019   38046  -38028  -38049       2   38016   38028  -38019  -38031       2
   38211   38214  -38220  -38229       2   38205   38220  -38214  -38226       2
   38202   38220  -38211  -38223       2   38193   38214  -38205  -38217       2
   38187   38202  -38196  -38208       2   38169   38196  -38187  -38199       2
   38151   38184  -38172  -38190       2   38145   38148  -38163  -38181       2
   38136   38142  -38154  -38178       2   38133   38172  -38151  -38175       2
   38130   38163  -38145  -38166       2   38130   38154  -38142  -38160       2
   38127   38154  -38136  -38157       2   38124   38136  -38127  -38139       2
   38319   38322  -38328  -38337       2   38313   38328  -38322  -38334       2
   38310   38328  -38319  -38331       2   38301   38322  -38313  -38325       2
   38295   38310  -38304  -38316       2   38277   38304  -38295  -38307       2
   38259   38292  -38280  -38298       2   38253   38256  -38271  -38289       2
   38244   38250  -38262  -38286       2   38241   38280  -38259  -38283       2
   38238   38271  -38253  -38274       2   38238   38262  -38250  -38268       2
   38235   38262  -38244  -38265       2   38232   38244  -38235  -38247       2
   38427   38430  -38436  -38445       2   38421   38436  -38430  -38442       2
   38418   38436  -38427  -38439       2   38409   38430  -38421  -38433       2
   38403   38418  -38412  -38424       2   38385   38412  -38403  -38415       2
   38367   38400  -38388  -38406       2   38361   38364  -38379  -38397       2
   38352   38358  -38370  -38394       2   38349   38388  -38367  -38391       2
   38346   38379  -38361  -38382       2   38346   38370  -38358  -38376       2
   38343   38370  -38352  -38373       2   38340   38352  -38343  -38355       2
   38535   38538  -38544  -38553       2   38529   38544  -38538  -38550       2
   38526   38544  -38535  -38547       2   38517   38538  -38529  -38541       2
   38511   38526  -38520  -38532       2   38493   38520  -38511  -38523       2
   38475   38508  -38496  -38514       2   38469   38472  -38487  -38505       2
   38460   38466  -38478  -38502       2   38457   38496  -38475  -38499       2
   38454   38487  -38469  -38490       2   38454   38478  -38466  -38484       2
   38451   38478  -38460  -38481       2   38448   38460  -38451  -38463       2
   38643   38646  -38652  -38661       2   38637   38652  -38646  -38658       2
   38634   38652  -38643  -38655       2   38625   38646  -38637  -38649       2
   38619   38634  -38628  -38640       2   38601   38628  -38619  -38631       2
   38583   38616  -38604  -38622       2   38577   38580  -38595  -38613       2
   38568   38574  -38586  -38610       2   38565   38604  -38583  -38607       2
   38562   38595  -38577  -38598       2   38562   38586  -38574  -38592       2
   38559   38586  -38568  -38589       2   38556   38568  -38559  -38571       2
   38751   38754  -38760  -38769       2   38745   38760  -38754  -38766       2
   38742   38760  -38751  -38763       2   38733   38754  -38745  -38757       2
   38727   38742  -38736  -38748       2   38709   38736  -38727  -38739       2
   38691   38724  -38712  -38730       2   38685   38688  -38703  -38721       2
   38676   38682  -38694  -38718       2   38673   38712  -38691  -38715       2
   38670   38703  -38685  -38706       2   38670   38694  -38682  -38700       2
   38667   38694  -38676  -38697       2   38664   38676  -38667  -38679       2
   38859   38862  -38868  -38877       2   38853   38868  -38862  -38874       2
   38850   38868  -38859  -38871       2   38841   38862  -38853  -38865       2
   38835   38850  -38844  -38856       2   38817   38844  -38835  -38847       2
   38799   38832  -38820  -38838       2   38793   38796  -38811  -38829       2
   38784   38790  -38802  -38826       2   38781   38820  -38799  -38823       2
   38778   38811  -38793  -38814       2   38778   38802  -38790  -38808       2
   38775   38802  -38784  -38805       2   38772   38784  -38775  -38787       2
   38967   38970  -38976  -38985       2   38961   38976  -38970  -38982       2
   38958   38976  -38967  -38979       2   38949   38970  -38961  -38973       2
   38943   38958  -38952  -38964       2   38925   38952  -38943  -38955       2
   38907   38940  -38928  -38946       2   38901   38904  -38919  -38937       2
   38892   38898  -38910  -38934       2   38889   38928  -38907  -38931       2
   38886   38919  -38901  -38922       2   38886   38910  -38898  -38916       2
   38883   38910  -38892  -38913       2   38880   38892  -38883  -38895       2
   39075   39078  -39084  -39093       2   39069   39084  -39078  -39090       2
   39066   39084  -39075  -39087       2   39057   39078  -39069  -39081       2
   39051   39066  -39060  -39072       2   39033   39060  -39051  -39063       2
   39015   39048  -39036  -39054       2   39009   39012  -39027  -39045       2
   39000   39006  -39018  -39042       2   38997   39036  -39015  -39039       2
   38994   39027  -39009  -39030       2   38994   39018  -39006  -39024       2
   38991   39018  -39000  -39021       2   38988   39000  -38991  -39003       2
   39183   39186  -39192  -39201       2   39177   39192  -39186  -39198       2
   39174   39192  -39183  -39195       2   39165   39186  -39177  -39189       2
   39159   39174  -39168  -39180       2   39141   39168  -39159  -39171       2
   39123   39156  -39144  -39162       2   39117   39120  -39135  -39153       2
   39108   39114  -39126  -39150       2   39105   39144  -39123  -39147       2
   39102   39135  -39117  -39138       2   39102   39126  -39114  -39132       2
   39099   39126  -39108  -39129       2   39096   39108  -39099  -39111       2
   39291   39294  -39300  -39309       2   39285   39300  -39294  -39306       2
   39282   39300  -39291  -39303       2   39273   39294  -39285  -39297       2
   39267   39282  -39276  -39288       2   39249   39276  -39267  -39279       2
   39231   39264  -39252  -39270       2   39225   39228  -39243  -39261       2
   39216   39222  -39234  -39258       2   39213   39252  -39231  -39255       2
   39210   39243  -39225  -39246       2   39210   39234  -39222  -39240       2
   39207   39234  -39216  -39237       2   39204   39216  -39207  -39219       2
   39399   39402  -39408  -39417       2   39393   39408  -39402  -39414       2
   39390   39408  -39399  -39411       2   39381   39402  -39393  -39405       2
   39375   39390  -39384  -39396       2   39357   39384  -39375  -39387       2
   39339   39372  -39360  -39378       2   39333   39336  -39351  -39369       2
   39324   39330  -39342  -39366       2   39321   39360  -39339  -39363       2
   39318   39351  -39333  -39354       2   39318   39342  -39330  -39348       2
   39315   39342  -39324  -39345       2   39312   39324  -39315  -39327       2
   39507   39510  -39516  -39525       2   39501   39516  -39510  -39522       2
   39498   39516  -39507  -39519       2   39489   39510  -39501  -39513       2
   39483   39498  -39492  -39504       2   39465   39492  -39483  -39495       2
   39447   39480  -39468  -39486       2   39441   39444  -39459  -39477       2
   39432   39438  -39450  -39474       2   39429   39468  -39447  -39471       2
   39426   39459  -39441  -39462       2   39426   39450  -39438  -39456       2
   39423   39450  -39432  -39453       2   39420   39432  -39423  -39435       2
   39615   39618  -39624  -39633       2   39609   39624  -39618  -39630       2
   39606   39624  -39615  -39627       2   39597   39618  -39609  -39621       2
   39591   39606  -39600  -39612       2   39573   39600  -39591  -39603       2
   39555   39588  -39576  -39594       2   39549   39552  -39567  -39585       2
   39540   39546  -39558  -39582       2   39537   39576  -39555  -39579       2
   39534   39567  -39549  -39570       2   39534   39558  -39546  -39564       2
   39531   39558  -39540  -39561       2   39528   39540  -39531  -39543       2
   39723   39726  -39732  -39741       2   39717   39732  -39726  -39738       2
   39714   39732  -39723  -39735       2   39705   39726  -39717  -39729       2
   39699   39714  -39708  -39720       2   39681   39708  -39699  -39711       2
   39663   39696  -39684  -39702       2   39657   39660  -39675  -39693       2
   39648   39654  -39666  -39690       2   39645   39684  -39663  -39687       2
   39642   39675  -39657  -39678       2   39642   39666  -39654  -39672       2
   39639   39666  -39648  -39669       2   39636   39648  -39639  -39651       2
   39831   39834  -39840  -39849       2   39825   39840  -39834  -39846       2
   39822   39840  -39831  -39843       2   39813   39834  -39825  -39837       2
   39807   39822  -39816  -39828       2   39789   39816  -39807  -39819       2
   39771   39804  -39792  -39810       2   39765   39768  -39783  -39801       2
   39756   39762  -39774  -39798       2   39753   39792  -39771  -39795       2
   39750   39783  -39765  -39786       2   39750   39774  -39762  -39780       2
   39747   39774  -39756  -39777       2   39744   39756  -39747  -39759       2
   39939   39942  -39948  -39957       2   39933   39948  -39942  -39954       2
   39930   39948  -39939  -39951       2   39921   39942  -39933  -39945       2
   39915   39930  -39924  -39936       2   39897   39924  -39915  -39927       2
   39879   39912  -39900  -39918       2   39873   39876  -39891  -39909       2
   39864   39870  -39882  -39906       2   39861   39900  -39879  -39903       2
   39858   39891  -39873  -39894       2   39858   39882  -39870  -39888       2
   39855   39882  -39864  -39885       2   39852   39864  -39855  -39867       2
   40047   40050  -40056  -40065       2   40041   40056  -40050  -40062       2
   40038   40056  -40047  -40059       2   40029   40050  -40041  -40053       2
   40023   40038  -40032  -40044       2   40005   40032  -40023  -40035       2
   39987   40020  -40008  -40026       2   39981   39984  -39999  -40017       2
   39972   39978  -39990  -40014       2   39969   40008  -39987  -40011       2
   39966   39999  -39981  -40002       2   39966   39990  -39978  -39996       2
   39963   39990  -39972  -39993       2   39960   39972  -39963  -39975       2
   40155   40158  -40164  -40173       2   40149   40164  -40158  -40170       2
   40146   40164  -40155  -40167       2   40137   40158  -40149  -40161       2
   40131   40146  -40140  -40152       2   40113   40140  -40131  -40143       2
   40095   40128  -40116  -40134       2   40089   40092  -40107  -40125       2
   40080   40086  -40098  -40122       2   40077   40116  -40095  -40119       2
   40074   40107  -40089  -40110       2   40074   40098  -40086  -40104       2
   40071   40098  -40080  -40101       2   40068   40080  -40071  -40083       2
   40263   40266  -40272  -40281       2   40257   40272  -40266  -40278       2
   40254   40272  -40263  -40275       2   40245   40266  -40257  -40269       2
   40239   40254  -40248  -40260       2   40221   40248  -40239  -40251       2
   40203   40236  -40224  -40242       2   40197   40200  -40215  -40233       2
   40188   40194  -40206  -40230       2   40185   40224  -40203  -40227       2
   40182   40215  -40197  -40218       2   40182   40206  -40194  -40212       2
   40179   40206  -40188  -40209       2   40176   40188  -40179  -40191       2
   40371   40374  -40380  -40389       2   40365   40380  -40374  -40386       2
   40362   40380  -40371  -40383       2   40353   40374  -40365  -40377       2
   40347   40362  -40356  -40368       2   40329   40356  -40347  -40359       2
   40311   40344  -40332  -40350       2   40305   40308  -40323  -40341       2
   40296   40302  -40314  -40338       2   40293   40332  -40311  -40335       2
   40290   40323  -40305  -40326       2   40290   40314  -40302  -40320       2
   40287   40314  -40296  -40317       2   40284   40296  -40287  -40299       2
   40479   40482  -40488  -40497       2   40473   40488  -40482  -40494       2
   40470   40488  -40479  -40491       2   40461   40482  -40473  -40485       2
   40455   40470  -40464  -40476       2   40437   40464  -40455  -40467       2
   40419   40452  -40440  -40458       2   40413   40416  -40431  -40449       2
   40404   40410  -40422  -40446       2   40401   40440  -40419  -40443       2
   40398   40431  -40413  -40434       2   40398   40422  -40410  -40428       2
   40395   40422  -40404  -40425       2   40392   40404  -40395  -40407       2
   40587   40590  -40596  -40605       2   40581   40596  -40590  -40602       2
   40578   40596  -40587  -40599       2   40569   40590  -40581  -40593       2
   40563   40578  -40572  -40584       2   40545   40572  -40563  -40575       2
   40527   40560  -40548  -40566       2   40521   40524  -40539  -40557       2
   40512   40518  -40530  -40554       2   40509   40548  -40527  -40551       2
   40506   40539  -40521  -40542       2   40506   40530  -40518  -40536       2
   40503   40530  -40512  -40533       2   40500   40512  -40503  -40515       2
   40695   40698  -40704  -40713       2   40689   40704  -40698  -40710       2
   40686   40704  -40695  -40707       2   40677   40698  -40689  -40701       2
   40671   40686  -40680  -40692       2   40653   40680  -40671  -40683       2
   40635   40668  -40656  -40674       2   40629   40632  -40647  -40665       2
   40620   40626  -40638  -40662       2   40617   40656  -40635  -40659       2
   40614   40647  -40629  -40650       2   40614   40638  -40626  -40644       2
   40611   40638  -40620  -40641       2   40608   40620  -40611  -40623       2
   40803   40806  -40812  -40821       2   40797   40812  -40806  -40818       2
   40794   40812  -40803  -40815       2   40785   40806  -40797  -40809       2
   40779   40794  -40788  -40800       2   40761   40788  -40779  -40791       2
   40743   40776  -40764  -40782       2   40737   40740  -40755  -40773       2
   40728   40734  -40746  -40770       2   40725   40764  -40743  -40767       2
   40722   40755  -40737  -40758       2   40722   40746  -40734  -40752       2
   40719   40746  -40728  -40749       2   40716   40728  -40719  -40731       2
   40911   40914  -40920  -40929       2   40905   40920  -40914  -40926       2
   40902   40920  -40911  -40923       2   40893   40914  -40905  -40917       2
   40887   40902  -40896  -40908       2   40869   40896  -40887  -40899       2
   40851   40884  -40872  -40890       2   40845   40848  -40863  -40881       2
   40836   40842  -40854  -40878       2   40833   40872  -40851  -40875       2
   40830   40863  -40845  -40866       2   40830   40854  -40842  -40860       2
   40827   40854  -40836  -40857       2   40824   40836  -40827  -40839       2
   41019   41022  -41028  -41037       2   41013   41028  -41022  -41034       2
   41010   41028  -41019  -41031       2   41001   41022  -41013  -41025       2
   40995   41010  -41004  -41016       2   40977   41004  -40995  -41007       2
   40959   40992  -40980  -40998       2   40953   40956  -40971  -40989       2
   40944   40950  -40962  -40986       2   40941   40980  -40959  -40983       2
   40938   40971  -40953  -40974       2   40938   40962  -40950  -40968       2
   40935   40962  -40944  -40965       2   40932   40944  -40935  -40947       2
   41127   41130  -41136  -41145       2   41121   41136  -41130  -41142       2
   41118   41136  -41127  -41139       2   41109   41130  -41121  -41133       2
   41103   41118  -41112  -41124       2   41085   41112  -41103  -41115       2
   41067   41100  -41088  -41106       2   41061   41064  -41079  -41097       2
   41052   41058  -41070  -41094       2   41049   41088  -41067  -41091       2
   41046   41079  -41061  -41082       2   41046   41070  -41058  -41076       2
   41043   41070  -41052  -41073       2   41040   41052  -41043  -41055       2
   41235   41238  -41244  -41253       2   41229   41244  -41238  -41250       2
   41226   41244  -41235  -41247       2   41217   41238  -41229  -41241       2
   41211   41226  -41220  -41232       2   41193   41220  -41211  -41223       2
   41175   41208  -41196  -41214       2   41169   41172  -41187  -41205       2
   41160   41166  -41178  -41202       2   41157   41196  -41175  -41199       2
   41154   41187  -41169  -41190       2   41154   41178  -41166  -41184       2
   41151   41178  -41160  -41181       2   41148   41160  -41151  -41163       2
   41343   41346  -41352  -41361       2   41337   41352  -41346  -41358       2
   41334   41352  -41343  -41355       2   41325   41346  -41337  -41349       2
   41319   41334  -41328  -41340       2   41301   41328  -41319  -41331       2
   41283   41316  -41304  -41322       2   41277   41280  -41295  -41313       2
   41268   41274  -41286  -41310       2   41265   41304  -41283  -41307       2
   41262   41295  -41277  -41298       2   41262   41286  -41274  -41292       2
   41259   41286  -41268  -41289       2   41256   41268  -41259  -41271       2
   41451   41454  -41460  -41469       2   41445   41460  -41454  -41466       2
   41442   41460  -41451  -41463       2   41433   41454  -41445  -41457       2
   41427   41442  -41436  -41448       2   41409   41436  -41427  -41439       2
   41391   41424  -41412  -41430       2   41385   41388  -41403  -41421       2
   41376   41382  -41394  -41418       2   41373   41412  -41391  -41415       2
   41370   41403  -41385  -41406       2   41370   41394  -41382  -41400       2
   41367   41394  -41376  -41397       2   41364   41376  -41367  -41379       2
   41559   41562  -41568  -41577       2   41553   41568  -41562  -41574       2
   41550   41568  -41559  -41571       2   41541   41562  -41553  -41565       2
   41535   41550  -41544  -41556       2   41517   41544  -41535  -41547       2
   41499   41532  -41520  -41538       2   41493   41496  -41511  -41529       2
   41484   41490  -41502  -41526       2   41481   41520  -41499  -41523       2
   41478   41511  -41493  -41514       2   41478   41502  -41490  -41508       2
   41475   41502  -41484  -41505       2   41472   41484  -41475  -41487       2
   41667   41670  -41676  -41685       2   41661   41676  -41670  -41682       2
   41658   41676  -41667  -41679       2   41649   41670  -41661  -41673       2
   41643   41658  -41652  -41664       2   41625   41652  -41643  -41655       2
   41607   41640  -41628  -41646       2   41601   41604  -41619  -41637       2
   41592   41598  -41610  -41634       2   41589   41628  -41607  -41631       2
   41586   41619  -41601  -41622       2   41586   41610  -41598  -41616       2
   41583   41610  -41592  -41613       2   41580   41592  -41583  -41595       2
   41775   41778  -41784  -41793       2   41769   41784  -41778  -41790       2
   41766   41784  -41775  -41787       2   41757   41778  -41769  -41781       2
   41751   41766  -41760  -41772       2   41733   41760  -41751  -41763       2
   41715   41748  -41736  -41754       2   41709   41712  -41727  -41745       2
   41700   41706  -41718  -41742       2   41697   41736  -41715  -41739       2
   41694   41727  -41709  -41730       2   41694   41718  -41706  -41724       2
   41691   41718  -41700  -41721       2   41688   41700  -41691  -41703       2
   41883   41886  -41892  -41901       2   41877   41892  -41886  -41898       2
   41874   41892  -41883  -41895       2   41865   41886  -41877  -41889       2
   41859   41874  -41868  -41880       2   41841   41868  -41859  -41871       2
   41823   41856  -41844  -41862       2   41817   41820  -41835  -41853       2
   41808   41814  -41826  -41850       2   41805   41844  -41823  -41847       2
   41802   41835  -41817  -41838       2   41802   41826  -41814  -41832       2
   41799   41826  -41808  -41829       2   41796   41808  -41799  -41811       2
   41991   41994  -42000  -42009       2   41985   42000  -41994  -42006       2
   41982   42000  -41991  -42003       2   41973   41994  -41985  -41997       2
   41967   41982  -41976  -41988       2   41949   41976  -41967  -41979       2
   41931   41964  -41952  -41970       2   41925   41928  -41943  -41961       2
   41916   41922  -41934  -41958       2   41913   41952  -41931  -41955       2
   41910   41943  -41925  -41946       2   41910   41934  -41922  -41940       2
   41907   41934  -41916  -41937       2   41904   41916  -41907  -41919       2
   42099   42102  -42108  -42117       2   42093   42108  -42102  -42114       2
   42090   42108  -42099  -42111       2   42081   42102  -42093  -42105       2
   42075   42090  -42084  -42096       2   42057   42084  -42075  -42087       2
   42039   42072  -42060  -42078       2   42033   42036  -42051  -42069       2
   42024   42030  -42042  -42066       2   42021   42060  -42039  -42063       2
   42018   42051  -42033  -42054       2   42018   42042  -42030  -42048       2
   42015   42042  -42024  -42045       2   42012   42024  -42015  -42027       2
   42207   42210  -42216  -42225       2   42201   42216  -42210  -42222       2
   42198   42216  -42207  -42219       2   42189   42210  -42201  -42213       2
   42183   42198  -42192  -42204       2   42165   42192  -42183  -42195       2
   42147   42180  -42168  -42186       2   42141   42144  -42159  -42177       2
   42132   42138  -42150  -42174       2   42129   42168  -42147  -42171       2
   42126   42159  -42141  -42162       2   42126   42150  -42138  -42156       2
   42123   42150  -42132  -42153       2   42120   42132  -42123  -42135       2
   42315   42318  -42324  -42333       2   42309   42324  -42318  -42330       2
   42306   42324  -42315  -42327       2   42297   42318  -42309  -42321       2
   42291   42306  -42300  -42312       2   42273   42300  -42291  -42303       2
   42255   42288  -42276  -42294       2   42249   42252  -42267  -42285       2
   42240   42246  -42258  -42282       2   42237   42276  -42255  -42279       2
   42234   42267  -42249  -42270       2   42234   42258  -42246  -42264       2
   42231   42258  -42240  -42261       2   42228   42240  -42231  -42243       2
   42423   42426  -42432  -42441       2   42417   42432  -42426  -42438       2
   42414   42432  -42423  -42435       2   42405   42426  -42417  -42429       2
   42399   42414  -42408  -42420       2   42381   42408  -42399  -42411       2
   42363   42396  -42384  -42402       2   42357   42360  -42375  -42393       2
   42348   42354  -42366  -42390       2   42345   42384  -42363  -42387       2
   42342   42375  -42357  -42378       2   42342   42366  -42354  -42372       2
   42339   42366  -42348  -42369       2   42336   42348  -42339  -42351       2
   42531   42534  -42540  -42549       2   42525   42540  -42534  -42546       2
   42522   42540  -42531  -42543       2   42513   42534  -42525  -42537       2
   42507   42522  -42516  -42528       2   42489   42516  -42507  -42519       2
   42471   42504  -42492  -42510       2   42465   42468  -42483  -42501       2
   42456   42462  -42474  -42498       2   42453   42492  -42471  -42495       2
   42450   42483  -42465  -42486       2   42450   42474  -42462  -42480       2
   42447   42474  -42456  -42477       2   42444   42456  -42447  -42459       2
   42639   42642  -42648  -42657       2   42633   42648  -42642  -42654       2
   42630   42648  -42639  -42651       2   42621   42642  -42633  -42645       2
   42615   42630  -42624  -42636       2   42597   42624  -42615  -42627       2
   42579   42612  -42600  -42618       2   42573   42576  -42591  -42609       2
   42564   42570  -42582  -42606       2   42561   42600  -42579  -42603       2
   42558   42591  -42573  -42594       2   42558   42582  -42570  -42588       2
   42555   42582  -42564  -42585       2   42552   42564  -42555  -42567       2
   42747   42750  -42756  -42765       2   42741   42756  -42750  -42762       2
   42738   42756  -42747  -42759       2   42729   42750  -42741  -42753       2
   42723   42738  -42732  -42744       2   42705   42732  -42723  -42735       2
   42687   42720  -42708  -42726       2   42681   42684  -42699  -42717       2
   42672   42678  -42690  -42714       2   42669   42708  -42687  -42711       2
   42666   42699  -42681  -42702       2   42666   42690  -42678  -42696       2
   42663   42690  -42672  -42693       2   42660   42672  -42663  -42675       2
   42855   42858  -42864  -42873       2   42849   42864  -42858  -42870       2
   42846   42864  -42855  -42867       2   42837   42858  -42849  -42861       2
   42831   42846  -42840  -42852       2   42813   42840  -42831  -42843       2
   42795   42828  -42816  -42834       2   42789   42792  -42807  -42825       2
   42780   42786  -42798  -42822       2   42777   42816  -42795  -42819       2
   42774   42807  -42789  -42810       2   42774   42798  -42786  -42804       2
   42771   42798  -42780  -42801       2   42768   42780  -42771  -42783       2
   42963   42966  -42972  -42981       2   42957   42972  -42966  -42978       2
   42954   42972  -42963  -42975       2   42945   42966  -42957  -42969       2
   42939   42954  -42948  -42960       2   42921   42948  -42939  -42951       2
   42903   42936  -42924  -42942       2   42897   42900  -42915  -42933       2
   42888   42894  -42906  -42930       2   42885   42924  -42903  -42927       2
   42882   42915  -42897  -42918       2   42882   42906  -42894  -42912       2
   42879   42906  -42888  -42909       2   42876   42888  -42879  -42891       2
   43071   43074  -43080  -43089       2   43065   43080  -43074  -43086       2
   43062   43080  -43071  -43083       2   43053   43074  -43065  -43077       2
   43047   43062  -43056  -43068       2   43029   43056  -43047  -43059       2
   43011   43044  -43032  -43050       2   43005   43008  -43023  -43041       2
   42996   43002  -43014  -43038       2   42993   43032  -43011  -43035       2
   42990   43023  -43005  -43026       2   42990   43014  -43002  -43020       2
   42987   43014  -42996  -43017       2   42984   42996  -42987  -42999       2
   43179   43182  -43188  -43197       2   43173   43188  -43182  -43194       2
   43170   43188  -43179  -43191       2   43161   43182  -43173  -43185       2
   43155   43170  -43164  -43176       2   43137   43164  -43155  -43167       2
   43119   43152  -43140  -43158       2   43113   43116  -43131  -43149       2
   43104   43110  -43122  -43146       2   43101   43140  -43119  -43143       2
   43098   43131  -43113  -43134       2   43098   43122  -43110  -43128       2
   43095   43122  -43104  -43125       2   43092   43104  -43095  -43107       2
   43287   43290  -43296  -43305       2   43281   43296  -43290  -43302       2
   43278   43296  -43287  -43299       2   43269   43290  -43281  -43293       2
   43263   43278  -43272  -43284       2   43245   43272  -43263  -43275       2
   43227   43260  -43248  -43266       2   43221   43224  -43239  -43257       2
   43212   43218  -43230  -43254       2   43209   43248  -43227  -43251       2
   43206   43239  -43221  -43242       2   43206   43230  -43218  -43236       2
   43203   43230  -43212  -43233       2   43200   43212  -43203  -43215       2
   43395   43398  -43404  -43413       2   43389   43404  -43398  -43410       2
   43386   43404  -43395  -43407       2   43377   43398  -43389  -43401       2
   43371   43386  -43380  -43392       2   43353   43380  -43371  -43383       2
   43335   43368  -43356  -43374       2   43329   43332  -43347  -43365       2
   43320   43326  -43338  -43362       2   43317   43356  -43335  -43359       2
   43314   43347  -43329  -43350       2   43314   43338  -43326  -43344       2
   43311   43338  -43320  -43341       2   43308   43320  -43311  -43323       2
   43503   43506  -43512  -43521       2   43497   43512  -43506  -43518       2
   43494   43512  -43503  -43515       2   43485   43506  -43497  -43509       2
   43479   43494  -43488  -43500       2   43461   43488  -43479  -43491       2
   43443   43476  -43464  -43482       2   43437   43440  -43455  -43473       2
   43428   43434  -43446  -43470       2   43425   43464  -43443  -43467       2
   43422   43455  -43437  -43458       2   43422   43446  -43434  -43452       2
   43419   43446  -43428  -43449       2   43416   43428  -43419  -43431       2
   43611   43614  -43620  -43629       2   43605   43620  -43614  -43626       2
   43602   43620  -43611  -43623       2   43593   43614  -43605  -43617       2
   43587   43602  -43596  -43608       2   43569   43596  -43587  -43599       2
   43551   43584  -43572  -43590       2   43545   43548  -43563  -43581       2
   43536   43542  -43554  -43578       2   43533   43572  -43551  -43575       2
   43530   43563  -43545  -43566       2   43530   43554  -43542  -43560       2
   43527   43554  -43536  -43557       2   43524   43536  -43527  -43539       2
   43719   43722  -43728  -43737       2   43713   43728  -43722  -43734       2
   43710   43728  -43719  -43731       2   43701   43722  -43713  -43725       2
   43695   43710  -43704  -43716       2   43677   43704  -43695  -43707       2
   43659   43692  -43680  -43698       2   43653   43656  -43671  -43689       2
   43644   43650  -43662  -43686       2   43641   43680  -43659  -43683       2
   43638   43671  -43653  -43674       2   43638   43662  -43650  -43668       2
   43635   43662  -43644  -43665       2   43632   43644  -43635  -43647       2
   43827   43830  -43836  -43845       2   43821   43836  -43830  -43842       2
   43818   43836  -43827  -43839       2   43809   43830  -43821  -43833       2
   43803   43818  -43812  -43824       2   43785   43812  -43803  -43815       2
   43767   43800  -43788  -43806       2   43761   43764  -43779  -43797       2
   43752   43758  -43770  -43794       2   43749   43788  -43767  -43791       2
   43746   43779  -43761  -43782       2   43746   43770  -43758  -43776       2
   43743   43770  -43752  -43773       2   43740   43752  -43743  -43755       2
   43935   43938  -43944  -43953       2   43929   43944  -43938  -43950       2
   43926   43944  -43935  -43947       2   43917   43938  -43929  -43941       2
   43911   43926  -43920  -43932       2   43893   43920  -43911  -43923       2
   43875   43908  -43896  -43914       2   43869   43872  -43887  -43905       2
   43860   43866  -43878  -43902       2   43857   43896  -43875  -43899       2
   43854   43887  -43869  -43890       2   43854   43878  -43866  -43884       2
   43851   43878  -43860  -43881       2   43848   43860  -43851  -43863       2
   44043   44046  -44052  -44061       2   44037   44052  -44046  -44058       2
   44034   44052  -44043  -44055       2   44025   44046  -44037  -44049       2
   44019   44034  -44028  -44040       2   44001   44028  -44019  -44031       2
   43983   44016  -44004  -44022       2   43977   43980  -43995  -44013       2
   43968   43974  -43986  -44010       2   43965   44004  -43983  -44007       2
   43962   43995  -43977  -43998       2   43962   43986  -43974  -43992       2
   43959   43986  -43968  -43989       2   43956   43968  -43959  -43971       2
   44151   44154  -44160  -44169       2   44145   44160  -44154  -44166       2
   44142   44160  -44151  -44163       2   44133   44154  -44145  -44157       2
   44127   44142  -44136  -44148       2   44109   44136  -44127  -44139       2
   44091   44124  -44112  -44130       2   44085   44088  -44103  -44121       2
   44076   44082  -44094  -44118       2   44073   44112  -44091  -44115       2
   44070   44103  -44085  -44106       2   44070   44094  -44082  -44100       2
   44067   44094  -44076  -44097       2   44064   44076  -44067  -44079       2
   44259   44262  -44268  -44277       2   44253   44268  -44262  -44274       2
   44250   44268  -44259  -44271       2   44241   44262  -44253  -44265       2
   44235   44250  -44244  -44256       2   44217   44244  -44235  -44247       2
   44199   44232  -44220  -44238       2   44193   44196  -44211  -44229       2
   44184   44190  -44202  -44226       2   44181   44220  -44199  -44223       2
   44178   44211  -44193  -44214       2   44178   44202  -44190  -44208       2
   44175   44202  -44184  -44205       2   44172   44184  -44175  -44187       2
   44367   44370  -44376  -44385       2   44361   44376  -44370  -44382       2
   44358   44376  -44367  -44379       2   44349   44370  -44361  -44373       2
   44343   44358  -44352  -44364       2   44325   44352  -44343  -44355       2
   44307   44340  -44328  -44346       2   44301   44304  -44319  -44337       2
   44292   44298  -44310  -44334       2   44289   44328  -44307  -44331       2
   44286   44319  -44301  -44322       2   44286   44310  -44298  -44316       2
   44283   44310  -44292  -44313       2   44280   44292  -44283  -44295       2
   44475   44478  -44484  -44493       2   44469   44484  -44478  -44490       2
   44466   44484  -44475  -44487       2   44457   44478  -44469  -44481       2
   44451   44466  -44460  -44472       2   44433   44460  -44451  -44463       2
   44415   44448  -44436  -44454       2   44409   44412  -44427  -44445       2
   44400   44406  -44418  -44442       2   44397   44436  -44415  -44439       2
   44394   44427  -44409  -44430       2   44394   44418  -44406  -44424       2
   44391   44418  -44400  -44421       2   44388   44400  -44391  -44403       2
   44583   44586  -44592  -44601       2   44577   44592  -44586  -44598       2
   44574   44592  -44583  -44595       2   44565   44586  -44577  -44589       2
   44559   44574  -44568  -44580       2   44541   44568  -44559  -44571       2
   44523   44556  -44544  -44562       2   44517   44520  -44535  -44553       2
   44508   44514  -44526  -44550       2   44505   44544  -44523  -44547       2
   44502   44535  -44517  -44538       2   44502   44526  -44514  -44532       2
   44499   44526  -44508  -44529       2   44496   44508  -44499  -44511       2
   44691   44694  -44700  -44709       2   44685   44700  -44694  -44706       2
   44682   44700  -44691  -44703       2   44673   44694  -44685  -44697       2
   44667   44682  -44676  -44688       2   44649   44676  -44667  -44679       2
   44631   44664  -44652  -44670       2   44625   44628  -44643  -44661       2
   44616   44622  -44634  -44658       2   44613   44652  -44631  -44655       2
   44610   44643  -44625  -44646       2   44610   44634  -44622  -44640       2
   44607   44634  -44616  -44637       2   44604   44616  -44607  -44619       2
   44799   44802  -44808  -44817       2   44793   44808  -44802  -44814       2
   44790   44808  -44799  -44811       2   44781   44802  -44793  -44805       2
   44775   44790  -44784  -44796       2   44757   44784  -44775  -44787       2
   44739   44772  -44760  -44778       2   44733   44736  -44751  -44769       2
   44724   44730  -44742  -44766       2   44721   44760  -44739  -44763       2
   44718   44751  -44733  -44754       2   44718   44742  -44730  -44748       2
   44715   44742  -44724  -44745       2   44712   44724  -44715  -44727       2
   44907   44910  -44916  -44925       2   44901   44916  -44910  -44922       2
   44898   44916  -44907  -44919       2   44889   44910  -44901  -44913       2
   44883   44898  -44892  -44904       2   44865   44892  -44883  -44895       2
   44847   44880  -44868  -44886       2   44841   44844  -44859  -44877       2
   44832   44838  -44850  -44874       2   44829   44868  -44847  -44871       2
   44826   44859  -44841  -44862       2   44826   44850  -44838  -44856       2
   44823   44850  -44832  -44853       2   44820   44832  -44823  -44835       2
   45015   45018  -45024  -45033       2   45009   45024  -45018  -45030       2
   45006   45024  -45015  -45027       2   44997   45018  -45009  -45021       2
   44991   45006  -45000  -45012       2   44973   45000  -44991  -45003       2
   44955   44988  -44976  -44994       2   44949   44952  -44967  -44985       2
   44940   44946  -44958  -44982       2   44937   44976  -44955  -44979       2
   44934   44967  -44949  -44970       2   44934   44958  -44946  -44964       2
   44931   44958  -44940  -44961       2   44928   44940  -44931  -44943       2
   45123   45126  -45132  -45141       2   45117   45132  -45126  -45138       2
   45114   45132  -45123  -45135       2   45105   45126  -45117  -45129       2
   45099   45114  -45108  -45120       2   45081   45108  -45099  -45111       2
   45063   45096  -45084  -45102       2   45057   45060  -45075  -45093       2
   45048   45054  -45066  -45090       2   45045   45084  -45063  -45087       2
   45042   45075  -45057  -45078       2   45042   45066  -45054  -45072       2
   45039   45066  -45048  -45069       2   45036   45048  -45039  -45051       2
   45231   45234  -45240  -45249       2   45225   45240  -45234  -45246       2
   45222   45240  -45231  -45243       2   45213   45234  -45225  -45237       2
   45207   45222  -45216  -45228       2   45189   45216  -45207  -45219       2
   45171   45204  -45192  -45210       2   45165   45168  -45183  -45201       2
   45156   45162  -45174  -45198       2   45153   45192  -45171  -45195       2
   45150   45183  -45165  -45186       2   45150   45174  -45162  -45180       2
   45147   45174  -45156  -45177       2   45144   45156  -45147  -45159       2
   45339   45342  -45348  -45357       2   45333   45348  -45342  -45354       2
   45330   45348  -45339  -45351       2   45321   45342  -45333  -45345       2
   45315   45330  -45324  -45336       2   45297   45324  -45315  -45327       2
   45279   45312  -45300  -45318       2   45273   45276  -45291  -45309       2
   45264   45270  -45282  -45306       2   45261   45300  -45279  -45303       2
   45258   45291  -45273  -45294       2   45258   45282  -45270  -45288       2
   45255   45282  -45264  -45285       2   45252   45264  -45255  -45267       2
   45447   45450  -45456  -45465       2   45441   45456  -45450  -45462       2
   45438   45456  -45447  -45459       2   45429   45450  -45441  -45453       2
   45423   45438  -45432  -45444       2   45405   45432  -45423  -45435       2
   45387   45420  -45408  -45426       2   45381   45384  -45399  -45417       2
   45372   45378  -45390  -45414       2   45369   45408  -45387  -45411       2
   45366   45399  -45381  -45402       2   45366   45390  -45378  -45396       2
   45363   45390  -45372  -45393       2   45360   45372  -45363  -45375       2
   45555   45558  -45564  -45573       2   45549   45564  -45558  -45570       2
   45546   45564  -45555  -45567       2   45537   45558  -45549  -45561       2
   45531   45546  -45540  -45552       2   45513   45540  -45531  -45543       2
   45495   45528  -45516  -45534       2   45489   45492  -45507  -45525       2
   45480   45486  -45498  -45522       2   45477   45516  -45495  -45519       2
   45474   45507  -45489  -45510       2   45474   45498  -45486  -45504       2
   45471   45498  -45480  -45501       2   45468   45480  -45471  -45483       2
   45663   45666  -45672  -45681       2   45657   45672  -45666  -45678       2
   45654   45672  -45663  -45675       2   45645   45666  -45657  -45669       2
   45639   45654  -45648  -45660       2   45621   45648  -45639  -45651       2
   45603   45636  -45624  -45642       2   45597   45600  -45615  -45633       2
   45588   45594  -45606  -45630       2   45585   45624  -45603  -45627       2
   45582   45615  -45597  -45618       2   45582   45606  -45594  -45612       2
   45579   45606  -45588  -45609       2   45576   45588  -45579  -45591       2
   45771   45774  -45780  -45789       2   45765   45780  -45774  -45786       2
   45762   45780  -45771  -45783       2   45753   45774  -45765  -45777       2
   45747   45762  -45756  -45768       2   45729   45756  -45747  -45759       2
   45711   45744  -45732  -45750       2   45705   45708  -45723  -45741       2
   45696   45702  -45714  -45738       2   45693   45732  -45711  -45735       2
   45690   45723  -45705  -45726       2   45690   45714  -45702  -45720       2
   45687   45714  -45696  -45717       2   45684   45696  -45687  -45699       2
   45879   45882  -45888  -45897       2   45873   45888  -45882  -45894       2
   45870   45888  -45879  -45891       2   45861   45882  -45873  -45885       2
   45855   45870  -45864  -45876       2   45837   45864  -45855  -45867       2
   45819   45852  -45840  -45858       2   45813   45816  -45831  -45849       2
   45804   45810  -45822  -45846       2   45801   45840  -45819  -45843       2
   45798   45831  -45813  -45834       2   45798   45822  -45810  -45828       2
   45795   45822  -45804  -45825       2   45792   45804  -45795  -45807       2
   45987   45990  -45996  -46005       2   45981   45996  -45990  -46002       2
   45978   45996  -45987  -45999       2   45969   45990  -45981  -45993       2
   45963   45978  -45972  -45984       2   45945   45972  -45963  -45975       2
   45927   45960  -45948  -45966       2   45921   45924  -45939  -45957       2
   45912   45918  -45930  -45954       2   45909   45948  -45927  -45951       2
   45906   45939  -45921  -45942       2   45906   45930  -45918  -45936       2
   45903   45930  -45912  -45933       2   45900   45912  -45903  -45915       2
   46095   46098  -46104  -46113       2   46089   46104  -46098  -46110       2
   46086   46104  -46095  -46107       2   46077   46098  -46089  -46101       2
   46071   46086  -46080  -46092       2   46053   46080  -46071  -46083       2
   46035   46068  -46056  -46074       2   46029   46032  -46047  -46065       2
   46020   46026  -46038  -46062       2   46017   46056  -46035  -46059       2
   46014   46047  -46029  -46050       2   46014   46038  -46026  -46044       2
   46011   46038  -46020  -46041       2   46008   46020  -46011  -46023       2
   46203   46206  -46212  -46221       2   46197   46212  -46206  -46218       2
   46194   46212  -46203  -46215       2   46185   46206  -46197  -46209       2
   46179   46194  -46188  -46200       2   46161   46188  -46179  -46191       2
   46143   46176  -46164  -46182       2   46137   46140  -46155  -46173       2
   46128   46134  -46146  -46170       2   46125   46164  -46143  -46167       2
   46122   46155  -46137  -46158       2   46122   46146  -46134  -46152       2
   46119   46146  -46128  -46149       2   46116   46128  -46119  -46131       2
   46311   46314  -46320  -46329       2   46305   46320  -46314  -46326       2
   46302   46320  -46311  -46323       2   46293   46314  -46305  -46317       2
   46287   46302  -46296  -46308       2   46269   46296  -46287  -46299       2
   46251   46284  -46272  -46290       2   46245   46248  -46263  -46281       2
   46236   46242  -46254  -46278       2   46233   46272  -46251  -46275       2
   46230   46263  -46245  -46266       2   46230   46254  -46242  -46260       2
   46227   46254  -46236  -46257       2   46224   46236  -46227  -46239       2
   46419   46422  -46428  -46437       2   46413   46428  -46422  -46434       2
   46410   46428  -46419  -46431       2   46401   46422  -46413  -46425       2
   46395   46410  -46404  -46416       2   46377   46404  -46395  -46407       2
   46359   46392  -46380  -46398       2   46353   46356  -46371  -46389       2
   46344   46350  -46362  -46386       2   46341   46380  -46359  -46383       2
   46338   46371  -46353  -46374       2   46338   46362  -46350  -46368       2
   46335   46362  -46344  -46365       2   46332   46344  -46335  -46347       2
   46527   46530  -46536  -46545       2   46521   46536  -46530  -46542       2
   46518   46536  -46527  -46539       2   46509   46530  -46521  -46533       2
   46503   46518  -46512  -46524       2   46485   46512  -46503  -46515       2
   46467   46500  -46488  -46506       2   46461   46464  -46479  -46497       2
   46452   46458  -46470  -46494       2   46449   46488  -46467  -46491       2
   46446   46479  -46461  -46482       2   46446   46470  -46458  -46476       2
   46443   46470  -46452  -46473       2   46440   46452  -46443  -46455       2
   46635   46638  -46644  -46653       2   46629   46644  -46638  -46650       2
   46626   46644  -46635  -46647       2   46617   46638  -46629  -46641       2
   46611   46626  -46620  -46632       2   46593   46620  -46611  -46623       2
   46575   46608  -46596  -46614       2   46569   46572  -46587  -46605       2
   46560   46566  -46578  -46602       2   46557   46596  -46575  -46599       2
   46554   46587  -46569  -46590       2   46554   46578  -46566  -46584       2
   46551   46578  -46560  -46581       2   46548   46560  -46551  -46563       2
   46743   46746  -46752  -46761       2   46737   46752  -46746  -46758       2
   46734   46752  -46743  -46755       2   46725   46746  -46737  -46749       2
   46719   46734  -46728  -46740       2   46701   46728  -46719  -46731       2
   46683   46716  -46704  -46722       2   46677   46680  -46695  -46713       2
   46668   46674  -46686  -46710       2   46665   46704  -46683  -46707       2
   46662   46695  -46677  -46698       2   46662   46686  -46674  -46692       2
   46659   46686  -46668  -46689       2   46656   46668  -46659  -46671       2
   46851   46854  -46860  -46869       2   46845   46860  -46854  -46866       2
   46842   46860  -46851  -46863       2   46833   46854  -46845  -46857       2
   46827   46842  -46836  -46848       2   46809   46836  -46827  -46839       2
   46791   46824  -46812  -46830       2   46785   46788  -46803  -46821       2
   46776   46782  -46794  -46818       2   46773   46812  -46791  -46815       2
   46770   46803  -46785  -46806       2   46770   46794  -46782  -46800       2
   46767   46794  -46776  -46797       2   46764   46776  -46767  -46779       2
   46959   46962  -46968  -46977       2   46953   46968  -46962  -46974       2
   46950   46968  -46959  -46971       2   46941   46962  -46953  -46965       2
   46935   46950  -46944  -46956       2   46917   46944  -46935  -46947       2
   46899   46932  -46920  -46938       2   46893   46896  -46911  -46929       2
   46884   46890  -46902  -46926       2   46881   46920  -46899  -46923       2
   46878   46911  -46893  -46914       2   46878   46902  -46890  -46908       2
   46875   46902  -46884  -46905       2   46872   46884  -46875  -46887       2
   47067   47070  -47076  -47085       2   47061   47076  -47070  -47082       2
   47058   47076  -47067  -47079       2   47049   47070  -47061  -47073       2
   47043   47058  -47052  -47064       2   47025   47052  -47043  -47055       2
   47007   47040  -47028  -47046       2   47001   47004  -47019  -47037       2
   46992   46998  -47010  -47034       2   46989   47028  -47007  -47031       2
   46986   47019  -47001  -47022       2   46986   47010  -46998  -47016       2
   46983   47010  -46992  -47013       2   46980   46992  -46983  -46995       2
   47175   47178  -47184  -47193       2   47169   47184  -47178  -47190       2
   47166   47184  -47175  -47187       2   47157   47178  -47169  -47181       2
   47151   47166  -47160  -47172       2   47133   47160  -47151  -47163       2
   47115   47148  -47136  -47154       2   47109   47112  -47127  -47145       2
   47100   47106  -47118  -47142       2   47097   47136  -47115  -47139       2
   47094   47127  -47109  -47130       2   47094   47118  -47106  -47124       2
   47091   47118  -47100  -47121       2   47088   47100  -47091  -47103       2
   47283   47286  -47292  -47301       2   47277   47292  -47286  -47298       2
   47274   47292  -47283  -47295       2   47265   47286  -47277  -47289       2
   47259   47274  -47268  -47280       2   47241   47268  -47259  -47271       2
   47223   47256  -47244  -47262       2   47217   47220  -47235  -47253       2
   47208   47214  -47226  -47250       2   47205   47244  -47223  -47247       2
   47202   47235  -47217  -47238       2   47202   47226  -47214  -47232       2
   47199   47226  -47208  -47229       2   47196   47208  -47199  -47211       2
   47391   47394  -47400  -47409       2   47385   47400  -47394  -47406       2
   47382   47400  -47391  -47403       2   47373   47394  -47385  -47397       2
   47367   47382  -47376  -47388       2   47349   47376  -47367  -47379       2
   47331   47364  -47352  -47370       2   47325   47328  -47343  -47361       2
   47316   47322  -47334  -47358       2   47313   47352  -47331  -47355       2
   47310   47343  -47325  -47346       2   47310   47334  -47322  -47340       2
   47307   47334  -47316  -47337       2   47304   47316  -47307  -47319       2
   47499   47502  -47508  -47517       2   47493   47508  -47502  -47514       2
   47490   47508  -47499  -47511       2   47481   47502  -47493  -47505       2
   47475   47490  -47484  -47496       2   47457   47484  -47475  -47487       2
   47439   47472  -47460  -47478       2   47433   47436  -47451  -47469       2
   47424   47430  -47442  -47466       2   47421   47460  -47439  -47463       2
   47418   47451  -47433  -47454       2   47418   47442  -47430  -47448       2
   47415   47442  -47424  -47445       2   47412   47424  -47415  -47427       2
   47607   47610  -47616  -47625       2   47601   47616  -47610  -47622       2
   47598   47616  -47607  -47619       2   47589   47610  -47601  -47613       2
   47583   47598  -47592  -47604       2   47565   47592  -47583  -47595       2
   47547   47580  -47568  -47586       2   47541   47544  -47559  -47577       2
   47532   47538  -47550  -47574       2   47529   47568  -47547  -47571       2
   47526   47559  -47541  -47562       2   47526   47550  -47538  -47556       2
   47523   47550  -47532  -47553       2   47520   47532  -47523  -47535       2
   47715   47718  -47724  -47733       2   47709   47724  -47718  -47730       2
   47706   47724  -47715  -47727       2   47697   47718  -47709  -47721       2
   47691   47706  -47700  -47712       2   47673   47700  -47691  -47703       2
   47655   47688  -47676  -47694       2   47649   47652  -47667  -47685       2
   47640   47646  -47658  -47682       2   47637   47676  -47655  -47679       2
   47634   47667  -47649  -47670       2   47634   47658  -47646  -47664       2
   47631   47658  -47640  -47661       2   47628   47640  -47631  -47643       2
   47823   47826  -47832  -47841       2   47817   47832  -47826  -47838       2
   47814   47832  -47823  -47835       2   47805   47826  -47817  -47829       2
   47799   47814  -47808  -47820       2   47781   47808  -47799  -47811       2
   47763   47796  -47784  -47802       2   47757   47760  -47775  -47793       2
   47748   47754  -47766  -47790       2   47745   47784  -47763  -47787       2
   47742   47775  -47757  -47778       2   47742   47766  -47754  -47772       2
   47739   47766  -47748  -47769       2   47736   47748  -47739  -47751       2
   47931   47934  -47940  -47949       2   47925   47940  -47934  -47946       2
   47922   47940  -47931  -47943       2   47913   47934  -47925  -47937       2
   47907   47922  -47916  -47928       2   47889   47916  -47907  -47919       2
   47871   47904  -47892  -47910       2   47865   47868  -47883  -47901       2
   47856   47862  -47874  -47898       2   47853   47892  -47871  -47895       2
   47850   47883  -47865  -47886       2   47850   47874  -47862  -47880       2
   47847   47874  -47856  -47877       2   47844   47856  -47847  -47859       2
   48039   48042  -48048  -48057       2   48033   48048  -48042  -48054       2
   48030   48048  -48039  -48051       2   48021   48042  -48033  -48045       2
   48015   48030  -48024  -48036       2   47997   48024  -48015  -48027       2
   47979   48012  -48000  -48018       2   47973   47976  -47991  -48009       2
   47964   47970  -47982  -48006       2   47961   48000  -47979  -48003       2
   47958   47991  -47973  -47994       2   47958   47982  -47970  -47988       2
   47955   47982  -47964  -47985       2   47952   47964  -47955  -47967       2
   48147   48150  -48156  -48165       2   48141   48156  -48150  -48162       2
   48138   48156  -48147  -48159       2   48129   48150  -48141  -48153       2
   48123   48138  -48132  -48144       2   48105   48132  -48123  -48135       2
   48087   48120  -48108  -48126       2   48081   48084  -48099  -48117       2
   48072   48078  -48090  -48114       2   48069   48108  -48087  -48111       2
   48066   48099  -48081  -48102       2   48066   48090  -48078  -48096       2
   48063   48090  -48072  -48093       2   48060   48072  -48063  -48075       2
   48255   48258  -48264  -48273       2   48249   48264  -48258  -48270       2
   48246   48264  -48255  -48267       2   48237   48258  -48249  -48261       2
   48231   48246  -48240  -48252       2   48213   48240  -48231  -48243       2
   48195   48228  -48216  -48234       2   48189   48192  -48207  -48225       2
   48180   48186  -48198  -48222       2   48177   48216  -48195  -48219       2
   48174   48207  -48189  -48210       2   48174   48198  -48186  -48204       2
   48171   48198  -48180  -48201       2   48168   48180  -48171  -48183       2
   48363   48366  -48372  -48381       2   48357   48372  -48366  -48378       2
   48354   48372  -48363  -48375       2   48345   48366  -48357  -48369       2
   48339   48354  -48348  -48360       2   48321   48348  -48339  -48351       2
   48303   48336  -48324  -48342       2   48297   48300  -48315  -48333       2
   48288   48294  -48306  -48330       2   48285   48324  -48303  -48327       2
   48282   48315  -48297  -48318       2   48282   48306  -48294  -48312       2
   48279   48306  -48288  -48309       2   48276   48288  -48279  -48291       2
   48471   48474  -48480  -48489       2   48465   48480  -48474  -48486       2
   48462   48480  -48471  -48483       2   48453   48474  -48465  -48477       2
   48447   48462  -48456  -48468       2   48429   48456  -48447  -48459       2
   48411   48444  -48432  -48450       2   48405   48408  -48423  -48441       2
   48396   48402  -48414  -48438       2   48393   48432  -48411  -48435       2
   48390   48423  -48405  -48426       2   48390   48414  -48402  -48420       2
   48387   48414  -48396  -48417       2   48384   48396  -48387  -48399       2
   48579   48582  -48588  -48597       2   48573   48588  -48582  -48594       2
   48570   48588  -48579  -48591       2   48561   48582  -48573  -48585       2
   48555   48570  -48564  -48576       2   48537   48564  -48555  -48567       2
   48519   48552  -48540  -48558       2   48513   48516  -48531  -48549       2
   48504   48510  -48522  -48546       2   48501   48540  -48519  -48543       2
   48498   48531  -48513  -48534       2   48498   48522  -48510  -48528       2
   48495   48522  -48504  -48525       2   48492   48504  -48495  -48507       2
   48687   48690  -48696  -48705       2   48681   48696  -48690  -48702       2
   48678   48696  -48687  -48699       2   48669   48690  -48681  -48693       2
   48663   48678  -48672  -48684       2   48645   48672  -48663  -48675       2
   48627   48660  -48648  -48666       2   48621   48624  -48639  -48657       2
   48612   48618  -48630  -48654       2   48609   48648  -48627  -48651       2
   48606   48639  -48621  -48642       2   48606   48630  -48618  -48636       2
   48603   48630  -48612  -48633       2   48600   48612  -48603  -48615       2
   48795   48798  -48804  -48813       2   48789   48804  -48798  -48810       2
   48786   48804  -48795  -48807       2   48777   48798  -48789  -48801       2
   48771   48786  -48780  -48792       2   48753   48780  -48771  -48783       2
   48735   48768  -48756  -48774       2   48729   48732  -48747  -48765       2
   48720   48726  -48738  -48762       2   48717   48756  -48735  -48759       2
   48714   48747  -48729  -48750       2   48714   48738  -48726  -48744       2
   48711   48738  -48720  -48741       2   48708   48720  -48711  -48723       2
   48903   48906  -48912  -48921       2   48897   48912  -48906  -48918       2
   48894   48912  -48903  -48915       2   48885   48906  -48897  -48909       2
   48879   48894  -48888  -48900       2   48861   48888  -48879  -48891       2
   48843   48876  -48864  -48882       2   48837   48840  -48855  -48873       2
   48828   48834  -48846  -48870       2   48825   48864  -48843  -48867       2
   48822   48855  -48837  -48858       2   48822   48846  -48834  -48852       2
   48819   48846  -48828  -48849       2   48816   48828  -48819  -48831       2
   49011   49014  -49020  -49029       2   49005   49020  -49014  -49026       2
   49002   49020  -49011  -49023       2   48993   49014  -49005  -49017       2
   48987   49002  -48996  -49008       2   48969   48996  -48987  -48999       2
   48951   48984  -48972  -48990       2   48945   48948  -48963  -48981       2
   48936   48942  -48954  -48978       2   48933   48972  -48951  -48975       2
   48930   48963  -48945  -48966       2   48930   48954  -48942  -48960       2
   48927   48954  -48936  -48957       2   48924   48936  -48927  -48939       2
   49119   49122  -49128  -49137       2   49113   49128  -49122  -49134       2
   49110   49128  -49119  -49131       2   49101   49122  -49113  -49125       2
   49095   49110  -49104  -49116       2   49077   49104  -49095  -49107       2
   49059   49092  -49080  -49098       2   49053   49056  -49071  -49089       2
   49044   49050  -49062  -49086       2   49041   49080  -49059  -49083       2
   49038   49071  -49053  -49074       2   49038   49062  -49050  -49068       2
   49035   49062  -49044  -49065       2   49032   49044  -49035  -49047       2
   49227   49230  -49236  -49245       2   49221   49236  -49230  -49242       2
   49218   49236  -49227  -49239       2   49209   49230  -49221  -49233       2
   49203   49218  -49212  -49224       2   49185   49212  -49203  -49215       2
   49167   49200  -49188  -49206       2   49161   49164  -49179  -49197       2
   49152   49158  -49170  -49194       2   49149   49188  -49167  -49191       2
   49146   49179  -49161  -49182       2   49146   49170  -49158  -49176       2
   49143   49170  -49152  -49173       2   49140   49152  -49143  -49155       2
   49335   49338  -49344  -49353       2   49329   49344  -49338  -49350       2
   49326   49344  -49335  -49347       2   49317   49338  -49329  -49341       2
   49311   49326  -49320  -49332       2   49293   49320  -49311  -49323       2
   49275   49308  -49296  -49314       2   49269   49272  -49287  -49305       2
   49260   49266  -49278  -49302       2   49257   49296  -49275  -49299       2
   49254   49287  -49269  -49290       2   49254   49278  -49266  -49284       2
   49251   49278  -49260  -49281       2   49248   49260  -49251  -49263       2
   49443   49446  -49452  -49461       2   49437   49452  -49446  -49458       2
   49434   49452  -49443  -49455       2   49425   49446  -49437  -49449       2
   49419   49434  -49428  -49440       2   49401   49428  -49419  -49431       2
   49383   49416  -49404  -49422       2   49377   49380  -49395  -49413       2
   49368   49374  -49386  -49410       2   49365   49404  -49383  -49407       2
   49362   49395  -49377  -49398       2   49362   49386  -49374  -49392       2
   49359   49386  -49368  -49389       2   49356   49368  -49359  -49371       2
   49551   49554  -49560  -49569       2   49545   49560  -49554  -49566       2
   49542   49560  -49551  -49563       2   49533   49554  -49545  -49557       2
   49527   49542  -49536  -49548       2   49509   49536  -49527  -49539       2
   49491   49524  -49512  -49530       2   49485   49488  -49503  -49521       2
   49476   49482  -49494  -49518       2   49473   49512  -49491  -49515       2
   49470   49503  -49485  -49506       2   49470   49494  -49482  -49500       2
   49467   49494  -49476  -49497       2   49464   49476  -49467  -49479       2
   49659   49662  -49668  -49677       2   49653   49668  -49662  -49674       2
   49650   49668  -49659  -49671       2   49641   49662  -49653  -49665       2
   49635   49650  -49644  -49656       2   49617   49644  -49635  -49647       2
   49599   49632  -49620  -49638       2   49593   49596  -49611  -49629       2
   49584   49590  -49602  -49626       2   49581   49620  -49599  -49623       2
   49578   49611  -49593  -49614       2   49578   49602  -49590  -49608       2
   49575   49602  -49584  -49605       2   49572   49584  -49575  -49587       2
   49767   49770  -49776  -49785       2   49761   49776  -49770  -49782       2
   49758   49776  -49767  -49779       2   49749   49770  -49761  -49773       2
   49743   49758  -49752  -49764       2   49725   49752  -49743  -49755       2
   49707   49740  -49728  -49746       2   49701   49704  -49719  -49737       2
   49692   49698  -49710  -49734       2   49689   49728  -49707  -49731       2
   49686   49719  -49701  -49722       2   49686   49710  -49698  -49716       2
   49683   49710  -49692  -49713       2   49680   49692  -49683  -49695       2
   49875   49878  -49884  -49893       2   49869   49884  -49878  -49890       2
   49866   49884  -49875  -49887       2   49857   49878  -49869  -49881       2
   49851   49866  -49860  -49872       2   49833   49860  -49851  -49863       2
   49815   49848  -49836  -49854       2   49809   49812  -49827  -49845       2
   49800   49806  -49818  -49842       2   49797   49836  -49815  -49839       2
   49794   49827  -49809  -49830       2   49794   49818  -49806  -49824       2
   49791   49818  -49800  -49821       2   49788   49800  -49791  -49803       2
   49983   49986  -49992  -50001       2   49977   49992  -49986  -49998       2
   49974   49992  -49983  -49995       2   49965   49986  -49977  -49989       2
   49959   49974  -49968  -49980       2   49941   49968  -49959  -49971       2
   49923   49956  -49944  -49962       2   49917   49920  -49935  -49953       2
   49908   49914  -49926  -49950       2   49905   49944  -49923  -49947       2
   49902   49935  -49917  -49938       2   49902   49926  -49914  -49932       2
   49899   49926  -49908  -49929       2   49896   49908  -49899  -49911       2
   50091   50094  -50100  -50109       2   50085   50100  -50094  -50106       2
   50082   50100  -50091  -50103       2   50073   50094  -50085  -50097       2
   50067   50082  -50076  -50088       2   50049   50076  -50067  -50079       2
   50031   50064  -50052  -50070       2   50025   50028  -50043  -50061       2
   50016   50022  -50034  -50058       2   50013   50052  -50031  -50055       2
   50010   50043  -50025  -50046       2   50010   50034  -50022  -50040       2
   50007   50034  -50016  -50037       2   50004   50016  -50007  -50019       2
   50199   50202  -50208  -50217       2   50193   50208  -50202  -50214       2
   50190   50208  -50199  -50211       2   50181   50202  -50193  -50205       2
   50175   50190  -50184  -50196       2   50157   50184  -50175  -50187       2
   50139   50172  -50160  -50178       2   50133   50136  -50151  -50169       2
   50124   50130  -50142  -50166       2   50121   50160  -50139  -50163       2
   50118   50151  -50133  -50154       2   50118   50142  -50130  -50148       2
   50115   50142  -50124  -50145       2   50112   50124  -50115  -50127       2
   50307   50310  -50316  -50325       2   50301   50316  -50310  -50322       2
   50298   50316  -50307  -50319       2   50289   50310  -50301  -50313       2
   50283   50298  -50292  -50304       2   50265   50292  -50283  -50295       2
   50247   50280  -50268  -50286       2   50241   50244  -50259  -50277       2
   50232   50238  -50250  -50274       2   50229   50268  -50247  -50271       2
   50226   50259  -50241  -50262       2   50226   50250  -50238  -50256       2
   50223   50250  -50232  -50253       2   50220   50232  -50223  -50235       2
   50415   50418  -50424  -50433       2   50409   50424  -50418  -50430       2
   50406   50424  -50415  -50427       2   50397   50418  -50409  -50421       2
   50391   50406  -50400  -50412       2   50373   50400  -50391  -50403       2
   50355   50388  -50376  -50394       2   50349   50352  -50367  -50385       2
   50340   50346  -50358  -50382       2   50337   50376  -50355  -50379       2
   50334   50367  -50349  -50370       2   50334   50358  -50346  -50364       2
   50331   50358  -50340  -50361       2   50328   50340  -50331  -50343       2
   50523   50526  -50532  -50541       2   50517   50532  -50526  -50538       2
   50514   50532  -50523  -50535       2   50505   50526  -50517  -50529       2
   50499   50514  -50508  -50520       2   50481   50508  -50499  -50511       2
   50463   50496  -50484  -50502       2   50457   50460  -50475  -50493       2
   50448   50454  -50466  -50490       2   50445   50484  -50463  -50487       2
   50442   50475  -50457  -50478       2   50442   50466  -50454  -50472       2
   50439   50466  -50448  -50469       2   50436   50448  -50439  -50451       2
   50631   50634  -50640  -50649       2   50625   50640  -50634  -50646       2
   50622   50640  -50631  -50643       2   50613   50634  -50625  -50637       2
   50607   50622  -50616  -50628       2   50589   50616  -50607  -50619       2
   50571   50604  -50592  -50610       2   50565   50568  -50583  -50601       2
   50556   50562  -50574  -50598       2   50553   50592  -50571  -50595       2
   50550   50583  -50565  -50586       2   50550   50574  -50562  -50580       2
   50547   50574  -50556  -50577       2   50544   50556  -50547  -50559       2
   50739   50742  -50748  -50757       2   50733   50748  -50742  -50754       2
   50730   50748  -50739  -50751       2   50721   50742  -50733  -50745       2
   50715   50730  -50724  -50736       2   50697   50724  -50715  -50727       2
   50679   50712  -50700  -50718       2   50673   50676  -50691  -50709       2
   50664   50670  -50682  -50706       2   50661   50700  -50679  -50703       2
   50658   50691  -50673  -50694       2   50658   50682  -50670  -50688       2
   50655   50682  -50664  -50685       2   50652   50664  -50655  -50667       2
   50847   50850  -50856  -50865       2   50841   50856  -50850  -50862       2
   50838   50856  -50847  -50859       2   50829   50850  -50841  -50853       2
   50823   50838  -50832  -50844       2   50805   50832  -50823  -50835       2
   50787   50820  -50808  -50826       2   50781   50784  -50799  -50817       2
   50772   50778  -50790  -50814       2   50769   50808  -50787  -50811       2
   50766   50799  -50781  -50802       2   50766   50790  -50778  -50796       2
   50763   50790  -50772  -50793       2   50760   50772  -50763  -50775       2
   50955   50958  -50964  -50973       2   50949   50964  -50958  -50970       2
   50946   50964  -50955  -50967       2   50937   50958  -50949  -50961       2
   50931   50946  -50940  -50952       2   50913   50940  -50931  -50943       2
   50895   50928  -50916  -50934       2   50889   50892  -50907  -50925       2
   50880   50886  -50898  -50922       2   50877   50916  -50895  -50919       2
   50874   50907  -50889  -50910       2   50874   50898  -50886  -50904       2
   50871   50898  -50880  -50901       2   50868   50880  -50871  -50883       2
   51063   51066  -51072  -51081       2   51057   51072  -51066  -51078       2
   51054   51072  -51063  -51075       2   51045   51066  -51057  -51069       2
   51039   51054  -51048  -51060       2   51021   51048  -51039  -51051       2
   51003   51036  -51024  -51042       2   50997   51000  -51015  -51033       2
   50988   50994  -51006  -51030       2   50985   51024  -51003  -51027       2
   50982   51015  -50997  -51018       2   50982   51006  -50994  -51012       2
   50979   51006  -50988  -51009       2   50976   50988  -50979  -50991       2
   51171   51174  -51180  -51189       2   51165   51180  -51174  -51186       2
   51162   51180  -51171  -51183       2   51153   51174  -51165  -51177       2
   51147   51162  -51156  -51168       2   51129   51156  -51147  -51159       2
   51111   51144  -51132  -51150       2   51105   51108  -51123  -51141       2
   51096   51102  -51114  -51138       2   51093   51132  -51111  -51135       2
   51090   51123  -51105  -51126       2   51090   51114  -51102  -51120       2
   51087   51114  -51096  -51117       2   51084   51096  -51087  -51099       2
   51279   51282  -51288  -51297       2   51273   51288  -51282  -51294       2
   51270   51288  -51279  -51291       2   51261   51282  -51273  -51285       2
   51255   51270  -51264  -51276       2   51237   51264  -51255  -51267       2
   51219   51252  -51240  -51258       2   51213   51216  -51231  -51249       2
   51204   51210  -51222  -51246       2   51201   51240  -51219  -51243       2
   51198   51231  -51213  -51234       2   51198   51222  -51210  -51228       2
   51195   51222  -51204  -51225       2   51192   51204  -51195  -51207       2
   51387   51390  -51396  -51405       2   51381   51396  -51390  -51402       2
   51378   51396  -51387  -51399       2   51369   51390  -51381  -51393       2
   51363   51378  -51372  -51384       2   51345   51372  -51363  -51375       2
   51327   51360  -51348  -51366       2   51321   51324  -51339  -51357       2
   51312   51318  -51330  -51354       2   51309   51348  -51327  -51351       2
   51306   51339  -51321  -51342       2   51306   51330  -51318  -51336       2
   51303   51330  -51312  -51333       2   51300   51312  -51303  -51315       2
   51495   51498  -51504  -51513       2   51489   51504  -51498  -51510       2
   51486   51504  -51495  -51507       2   51477   51498  -51489  -51501       2
   51471   51486  -51480  -51492       2   51453   51480  -51471  -51483       2
   51435   51468  -51456  -51474       2   51429   51432  -51447  -51465       2
   51420   51426  -51438  -51462       2   51417   51456  -51435  -51459       2
   51414   51447  -51429  -51450       2   51414   51438  -51426  -51444       2
   51411   51438  -51420  -51441       2   51408   51420  -51411  -51423       2
   51603   51606  -51612  -51621       2   51597   51612  -51606  -51618       2
   51594   51612  -51603  -51615       2   51585   51606  -51597  -51609       2
   51579   51594  -51588  -51600       2   51561   51588  -51579  -51591       2
   51543   51576  -51564  -51582       2   51537   51540  -51555  -51573       2
   51528   51534  -51546  -51570       2   51525   51564  -51543  -51567       2
   51522   51555  -51537  -51558       2   51522   51546  -51534  -51552       2
   51519   51546  -51528  -51549       2   51516   51528  -51519  -51531       2
   51711   51714  -51720  -51729       2   51705   51720  -51714  -51726       2
   51702   51720  -51711  -51723       2   51693   51714  -51705  -51717       2
   51687   51702  -51696  -51708       2   51669   51696  -51687  -51699       2
   51651   51684  -51672  -51690       2   51645   51648  -51663  -51681       2
   51636   51642  -51654  -51678       2   51633   51672  -51651  -51675       2
   51630   51663  -51645  -51666       2   51630   51654  -51642  -51660       2
   51627   51654  -51636  -51657       2   51624   51636  -51627  -51639       2
   51819   51822  -51828  -51837       2   51813   51828  -51822  -51834       2
   51810   51828  -51819  -51831       2   51801   51822  -51813  -51825       2
   51795   51810  -51804  -51816       2   51777   51804  -51795  -51807       2
   51759   51792  -51780  -51798       2   51753   51756  -51771  -51789       2
   51744   51750  -51762  -51786       2   51741   51780  -51759  -51783       2
   51738   51771  -51753  -51774       2   51738   51762  -51750  -51768       2
   51735   51762  -51744  -51765       2   51732   51744  -51735  -51747       2
   51927   51930  -51936  -51945       2   51921   51936  -51930  -51942       2
   51918   51936  -51927  -51939       2   51909   51930  -51921  -51933       2
   51903   51918  -51912  -51924       2   51885   51912  -51903  -51915       2
   51867   51900  -51888  -51906       2   51861   51864  -51879  -51897       2
   51852   51858  -51870  -51894       2   51849   51888  -51867  -51891       2
   51846   51879  -51861  -51882       2   51846   51870  -51858  -51876       2
   51843   51870  -51852  -51873       2   51840   51852  -51843  -51855       2
   52035   52038  -52044  -52053       2   52029   52044  -52038  -52050       2
   52026   52044  -52035  -52047       2   52017   52038  -52029  -52041       2
   52011   52026  -52020  -52032       2   51993   52020  -52011  -52023       2
   51975   52008  -51996  -52014       2   51969   51972  -51987  -52005       2
   51960   51966  -51978  -52002       2   51957   51996  -51975  -51999       2
   51954   51987  -51969  -51990       2   51954   51978  -51966  -51984       2
   51951   51978  -51960  -51981       2   51948   51960  -51951  -51963       2
   52143   52146  -52152  -52161       2   52137   52152  -52146  -52158       2
   52134   52152  -52143  -52155       2   52125   52146  -52137  -52149       2
   52119   52134  -52128  -52140       2   52101   52128  -52119  -52131       2
   52083   52116  -52104  -52122       2   52077   52080  -52095  -52113       2
   52068   52074  -52086  -52110       2   52065   52104  -52083  -52107       2
   52062   52095  -52077  -52098       2   52062   52086  -52074  -52092       2
   52059   52086  -52068  -52089       2   52056   52068  -52059  -52071       2
   52251   52254  -52260  -52269       2   52245   52260  -52254  -52266       2
   52242   52260  -52251  -52263       2   52233   52254  -52245  -52257       2
   52227   52242  -52236  -52248       2   52209   52236  -52227  -52239       2
   52191   52224  -52212  -52230       2   52185   52188  -52203  -52221       2
   52176   52182  -52194  -52218       2   52173   52212  -52191  -52215       2
   52170   52203  -52185  -52206       2   52170   52194  -52182  -52200       2
   52167   52194  -52176  -52197       2   52164   52176  -52167  -52179       2
   52359   52362  -52368  -52377       2   52353   52368  -52362  -52374       2
   52350   52368  -52359  -52371       2   52341   52362  -52353  -52365       2
   52335   52350  -52344  -52356       2   52317   52344  -52335  -52347       2
   52299   52332  -52320  -52338       2   52293   52296  -52311  -52329       2
   52284   52290  -52302  -52326       2   52281   52320  -52299  -52323       2
   52278   52311  -52293  -52314       2   52278   52302  -52290  -52308       2
   52275   52302  -52284  -52305       2   52272   52284  -52275  -52287       2
   52467   52470  -52476  -52485       2   52461   52476  -52470  -52482       2
   52458   52476  -52467  -52479       2   52449   52470  -52461  -52473       2
   52443   52458  -52452  -52464       2   52425   52452  -52443  -52455       2
   52407   52440  -52428  -52446       2   52401   52404  -52419  -52437       2
   52392   52398  -52410  -52434       2   52389   52428  -52407  -52431       2
   52386   52419  -52401  -52422       2   52386   52410  -52398  -52416       2
   52383   52410  -52392  -52413       2   52380   52392  -52383  -52395       2
   52575   52578  -52584  -52593       2   52569   52584  -52578  -52590       2
   52566   52584  -52575  -52587       2   52557   52578  -52569  -52581       2
   52551   52566  -52560  -52572       2   52533   52560  -52551  -52563       2
   52515   52548  -52536  -52554       2   52509   52512  -52527  -52545       2
   52500   52506  -52518  -52542       2   52497   52536  -52515  -52539       2
   52494   52527  -52509  -52530       2   52494   52518  -52506  -52524       2
   52491   52518  -52500  -52521       2   52488   52500  -52491  -52503       2
   52683   52686  -52692  -52701       2   52677   52692  -52686  -52698       2
   52674   52692  -52683  -52695       2   52665   52686  -52677  -52689       2
   52659   52674  -52668  -52680       2   52641   52668  -52659  -52671       2
   52623   52656  -52644  -52662       2   52617   52620  -52635  -52653       2
   52608   52614  -52626  -52650       2   52605   52644  -52623  -52647       2
   52602   52635  -52617  -52638       2   52602   52626  -52614  -52632       2
   52599   52626  -52608  -52629       2   52596   52608  -52599  -52611       2
   52791   52794  -52800  -52809       2   52785   52800  -52794  -52806       2
   52782   52800  -52791  -52803       2   52773   52794  -52785  -52797       2
   52767   52782  -52776  -52788       2   52749   52776  -52767  -52779       2
   52731   52764  -52752  -52770       2   52725   52728  -52743  -52761       2
   52716   52722  -52734  -52758       2   52713   52752  -52731  -52755       2
   52710   52743  -52725  -52746       2   52710   52734  -52722  -52740       2
   52707   52734  -52716  -52737       2   52704   52716  -52707  -52719       2
   52899   52902  -52908  -52917       2   52893   52908  -52902  -52914       2
   52890   52908  -52899  -52911       2   52881   52902  -52893  -52905       2
   52875   52890  -52884  -52896       2   52857   52884  -52875  -52887       2
   52839   52872  -52860  -52878       2   52833   52836  -52851  -52869       2
   52824   52830  -52842  -52866       2   52821   52860  -52839  -52863       2
   52818   52851  -52833  -52854       2   52818   52842  -52830  -52848       2
   52815   52842  -52824  -52845       2   52812   52824  -52815  -52827       2
%FLAG DIHEDRALS_WITHOUT_HYDROGEN
%FORMAT(10I8)
      81      69      78      87       1      81      90     -96      87       1
      78      69      81      90       1      78      87     -96      90       1
      72      78      69      81       1      72      78      87      96       1
      69      78      87      96       1      69      81     -90      96       1
      63      45      60      69       1      63      72     -78      69       1
      63      72      78      87       1      60      45      63      72       1
      60      69     -78      72       1      60      69      78      87       1
      60      69      81      90       1      48      60      45      63       1
      48      60      69      78       1      48      60      69      81       1
      45      60      69      78       1      45      60      69      81       1
      45      63     -72      78       1      39      24      45      60       1
      39      24      45      63       1      27       9      24      39       1
      27       9      24      45       1      27      48     -60      45       1
      27      48      60      69       1      24       9      27      48       1
      24      45     -60      48       1      24      45      60      69       1
      24      45      63      72       1      21       6      18      30       1
      21      39      24      45       1      18       6      21      39       1
       9       0       3      12       1       9       0       6      18       1
       9       0       6      21       1       9      24     -39      21       1
       9      24      45      60       1       9      24      45      63       1
       9      27     -48      60       1       6       0       3      12       1
       6       0       9      24       1       6       0       9      27       1
       6      18     -30      12       1       6      21     -39      24       1
       3       0       6      18       1       3       0       6      21       1
       3       0       9      24       1       3       0       9      27       1
       3      12     -30      18       1       0       3      12      30       1
       0       6     -18      30       1       0       6      21      39       1
       0       9     -24      39       1       0       9      24      45       1
       0       9      27      48       1     189     177     186     195       1
     189     198    -204     195       1     186     177     189     198       1
     186     195    -204     198       1     180     186     177     189       1
     180     186     195     204       1     177     186     195     204       1
     177     189    -198     204       1     171     153     168     177       1
     171     180    -186     177       1     171     180     186     195       1
     168     153     171     180       1     168     177    -186     180       1
     168     177     186     195       1     168     177     189     198       1
     156     168     153     171       1     156     168     177     186       1
     156     168     177     189       1     153     168     177     186       1
     153     168     177     189       1     153     171    -180     186       1
     147     132     153     168       1     147     132     153     171       1
     135     117     132     147       1     135     117     132     153       1
     135     156    -168     153       1     135     156     168     177       1
     132     117     135     156       1     132     153    -168     156       1
     132     153     168     177       1     132     153     171     180       1
     129     114     126     138       1     129     147     132     153       1
     126     114     129     147       1     117     108     111     120       1
     117     108     114     126       1     117     108     114     129       1
     117     132    -147     129       1     117     132     153     168       1
     117     132     153     171       1     117     135    -156     168       1
     114     108     111     120       1     114     108     117     132       1
     114     108     117     135       1     114     126    -138     120       1
     114     129    -147     132       1     111     108     114     126       1
     111     108     114     129       1     111     108     117     132       1
     111     108     117     135       1     111     120    -138     126       1
     108     111     120     138       1     108     114    -126     138       1
     108     114     129     147       1     108     117    -132     147       1
     108     117     132     153       1     108     117     135     156       1
     297     285     294     303       1     297     306    -312     303       1
     294     285     297     306       1     294     303    -312     306       1
     288     294     285     297       1     288     294     303     312       1
     285     294     303     312       1     285     297    -306     312       1
     279     261     276     285       1     279     288    -294     285       1
     279     288     294     303       1     276     261     279     288       1
     276     285    -294     288       1     276     285     294     303       1
     276     285     297     306       1     264     276     261     279       1
     264     276     285     294       1     264     276     285     297       1
     261     276     285     294       1     261     276     285     297       1
     261     279    -288     294       1     255     240     261     276       1
     255     240     261     279       1     243     225     240     255       1
     243     225     240     261       1     243     264    -276     261       1
     243     264     276     285       1     240     225     243     264       1
     240     261    -276     264       1     240     261     276     285       1
     240     261     279     288       1     237     222     234     246       1
     237     255     240     261       1     234     222     237     255       1
     225     216     219     228       1     225     216     222     234       1
     225     216     222     237       1     225     240    -255     237       1
     225     240     261     276       1     225     240     261     279       1
     225     243    -264     276       1     222     216     219     228       1
     222     216     225     240       1     222     216     225     243       1
     222     234    -246     228       1     222     237    -255     240       1
     219     216     222     234       1     219     216     222     237       1
     219     216     225     240       1     219     216     225     243       1
     219     228    -246     234       1     216     219     228     246       1
     216     222    -234     246       1     216     222     237     255       1
     216     225    -240     255       1     216     225     240     261       1
     216     225     243     264       1     405     393     402     411       1
     405     414    -420     411       1     402     393     405     414       1
     402     411    -420     414       1     396     402     393     405       1
     396     402     411     420       1     393     402     411     420       1
     393     405    -414     420       1     387     369     384     393       1
     387     396    -402     393       1     387     396     402     411       1
     384     369     387     396       1     384     393    -402     396       1
     384     393     402     411       1     384     393     405     414       1
     372     384     369     387       1     372     384     393     402       1
     372     384     393     405       1     369     384     393     402       1
     369     384     393     405       1     369     387    -396     402       1
     363     348     369     384       1     363     348     369     387       1
     351     333     348     363       1     351     333     348     369       1
     351     372    -384     369       1     351     372     384     393       1
     348     333     351     372       1     348     369    -384     372       1
     348     369     384     393       1     348     369     387     396       1
     345     330     342     354       1     345     363     348     369       1
     342     330     345     363       1     333     324     327     336       1
     333     324     330     342       1     333     324     330     345       1
     333     348    -363     345       1     333     348     369     384       1
     333     348     369     387       1     333     351    -372     384       1
     330     324     327     336       1     330     324     333     348       1
     330     324     333     351       1     330     342    -354     336       1
     330     345    -363     348       1     327     324     330     342       1
     327     324     330     345       1     327     324     333     348       1
     327     324     333     351       1     327     336    -354     342       1
     324     327     336     354       1     324     330    -342     354       1
     324     330     345     363       1     324     333    -348     363       1
     324     333     348     369       1     324     333     351     372       1
     513     501     510     519       1     513     522    -528     519       1
     510     501     513     522       1     510     519    -528     522       1
     504     510     501     513       1     504     510     519     528       1
     501     510     519     528       1     501     513    -522     528       1
     495     477     492     501       1     495     504    -510     501       1
     495     504     510     519       1     492     477     495     504       1
     492     501    -510     504       1     492     501     510     519       1
     492     501     513     522       1     480     492     477     495       1
     480     492     501     510       1     480     492     501     513       1
     477     492     501     510       1     477     492     501     513       1
     477     495    -504     510       1     471     456     477     492       1
     471     456     477     495       1     459     441     456     471       1
     459     441     456     477       1     459     480    -492     477       1
     459     480     492     501       1     456     441     459     480       1
     456     477    -492     480       1     456     477     492     501       1
     456     477     495     504       1     453     438     450     462       1
     453     471     456     477       1     450     438     453     471       1
     441     432     435     444       1     441     432     438     450       1
     441     432     438     453       1     441     456    -471     453       1
     441     456     477     492       1     441     456     477     495       1
     441     459    -480     492       1     438     432     435     444       1
     438     432     441     456       1     438     432     441     459       1
     438     450    -462     444       1     438     453    -471     456       1
     435     432     438     450       1     435     432     438     453       1
     435     432     441     456       1     435     432     441     459       1
     435     444    -462     450       1     432     435     444     462       1
     432     438    -450     462       1     432     438     453     471       1
     432     441    -456     471       1     432     441     456     477       1
     432     441     459     480       1     621     609     618     627       1
     621     630    -636     627       1     618     609     621     630       1
     618     627    -636     630       1     612     618     609     621       1
     612     618     627     636       1     609     618     627     636       1
     609     621    -630     636       1     603     585     600     609       1
     603     612    -618     609       1     603     612     618     627       1
     600     585     603     612       1     600     609    -618     612       1
     600     609     618     627       1     600     609     621     630       1
     588     600     585     603       1     588     600     609     618       1
     588     600     609     621       1     585     600     609     618       1
     585     600     609     621       1     585     603    -612     618       1
     579     564     585     600       1     579     564     585     603       1
     567     549     564     579       1     567     549     564     585       1
     567     588    -600     585       1     567     588     600     609       1
     564     549     567     588       1     564     585    -600     588       1
     564     585     600     609       1     564     585     603     612       1
     561     546     558     570       1     561     579     564     585       1
     558     546     561     579       1     549     540     543     552       1
     549     540     546     558       1     549     540     546     561       1
     549     564    -579     561       1     549     564     585     600       1
     549     564     585     603       1     549     567    -588     600       1
     546     540     543     552       1     546     540     549     564       1
     546     540     549     567       1     546     558    -570     552       1
     546     561    -579     564       1     543     540     546     558       1
     543     540     546     561       1     543     540     549     564       1
     543     540     549     567       1     543     552    -570     558       1
     540     543     552     570       1     540     546    -558     570       1
     540     546     561     579       1     540     549    -564     579       1
     540     549     564     585       1     540     549     567     588       1
     729     717     726     735       1     729     738    -744     735       1
     726     717     729     738       1     726     735    -744     738       1
     720     726     717     729       1     720     726     735     744       1
     717     726     735     744       1     717     729    -738     744       1
     711     693     708     717       1     711     720    -726     717       1
     711     720     726     735       1     708     693     711     720       1
     708     717    -726     720       1     708     717     726     735       1
     708     717     729     738       1     696     708     693     711       1
     696     708     717     726       1     696     708     717     729       1
     693     708     717     726       1     693     708     717     729       1
     693     711    -720     726       1     687     672     693     708       1
     687     672     693     711       1     675     657     672     687       1
     675     657     672     693       1     675     696    -708     693       1
     675     696     708     717       1     672     657     675     696       1
     672     693    -708     696       1     672     693     708     717       1
     672     693     711     720       1     669     654     666     678       1
     669     687     672     693       1     666     654     669     687       1
     657     648     651     660       1     657     648     654     666       1
     657     648     654     669       1     657     672    -687     669       1
     657     672     693     708       1     657     672     693     711       1
     657     675    -696     708       1     654     648     651     660       1
     654     648     657     672       1     654     648     657     675       1
     654     666    -678     660       1     654     669    -687     672       1
     651     648     654     666       1     651     648     654     669       1
     651     648     657     672       1     651     648     657     675       1
     651     660    -678     666       1     648     651     660     678       1
     648     654    -666     678       1     648     654     669     687       1
     648     657    -672     687       1     648     657     672     693       1
     648     657     675     696       1     837     825     834     843       1
     837     846    -852     843       1     834     825     837     846       1
     834     843    -852     846       1     828     834     825     837       1
     828     834     843     852       1     825     834     843     852       1
     825     837    -846     852       1     819     801     816     825       1
     819     828    -834     825       1     819     828     834     843       1
     816     801     819     828       1     816     825    -834     828       1
     816     825     834     843       1     816     825     837     846       1
     804     816     801     819       1     804     816     825     834       1
     804     816     825     837       1     801     816     825     834       1
     801     816     825     837       1     801     819    -828     834       1
     795     780     801     816       1     795     780     801     819       1
     783     765     780     795       1     783     765     780     801       1
     783     804    -816     801       1     783     804     816     825       1
     780     765     783     804       1     780     801    -816     804       1
     780     801     816     825       1     780     801     819     828       1
     777     762     774     786       1     777     795     780     801       1
     774     762     777     795       1     765     756     759     768       1
     765     756     762     774       1     765     756     762     777       1
     765     780    -795     777       1     765     780     801     816       1
     765     780     801     819       1     765     783    -804     816       1
     762     756     759     768       1     762     756     765     780       1
     762     756     765     783       1     762     774    -786     768       1
     762     777    -795     780       1     759     756     762     774       1
     759     756     762     777       1     759     756     765     780       1
     759     756     765     783       1     759     768    -786     774       1
     756     759     768     786       1     756     762    -774     786       1
     756     762     777     795       1     756     765    -780     795       1
     756     765     780     801       1     756     765     783     804       1
     945     933     942     951       1     945     954    -960     951       1
     942     933     945     954       1     942     951    -960     954       1
     936     942     933     945       1     936     942     951     960       1
     933     942     951     960       1     933     945    -954     960       1
     927     909     924     933       1     927     936    -942     933       1
     927     936     942     951       1     924     909     927     936       1
     924     933    -942     936       1     924     933     942     951       1
     924     933     945     954       1     912     924     909     927       1
     912     924     933     942       1     912     924     933     945       1
     909     924     933     942       1     909     924     933     945       1
     909     927    -936     942       1     903     888     909     924       1
     903     888     909     927       1     891     873     888     903       1
     891     873     888     909       1     891     912    -924     909       1
     891     912     924     933       1     888     873     891     912       1
     888     909    -924     912       1     888     909     924     933       1
     888     909     927     936       1     885     870     882     894       1
     885     903     888     909       1     882     870     885     903       1
     873     864     867     876       1     873     864     870     882       1
     873     864     870     885       1     873     888    -903     885       1
     873     888     909     924       1     873     888     909     927       1
     873     891    -912     924       1     870     864     867     876       1
     870     864     873     888       1     870     864     873     891       1
     870     882    -894     876       1     870     885    -903     888       1
     867     864     870     882       1     867     864     870     885       1
     867     864     873     888       1     867     864     873     891       1
     867     876    -894     882       1     864     867     876     894       1
     864     870    -882     894       1     864     870     885     903       1
     864     873    -888     903       1     864     873     888     909       1
     864     873     891     912       1    1053    1041    1050    1059       1
    1053    1062   -1068    1059       1    1050    1041    1053    1062       1
    1050    1059   -1068    1062       1    1044    1050    1041    1053       1
    1044    1050    1059    1068       1    1041    1050    1059    1068       1
    1041    1053   -1062    1068       1    1035    1017    1032    1041       1
    1035    1044   -1050    1041       1    1035    1044    1050    1059       1
    1032    1017    1035    1044       1    1032    1041   -1050    1044       1
    1032    1041    1050    1059       1    1032    1041    1053    1062       1
    1020    1032    1017    1035       1    1020    1032    1041    1050       1
    1020    1032    1041    1053       1    1017    1032    1041    1050       1
    1017    1032    1041    1053       1    1017    1035   -1044    1050       1
    1011     996    1017    1032       1    1011     996    1017    1035       1
     999     981     996    1011       1     999     981     996    1017       1
     999    1020   -1032    1017       1     999    1020    1032    1041       1
     996     981     999    1020       1     996    1017   -1032    1020       1
     996    1017    1032    1041       1     996    1017    1035    1044       1
     993     978     990    1002       1     993    1011     996    1017       1
     990     978     993    1011       1     981     972     975     984       1
     981     972     978     990       1     981     972     978     993       1
     981     996   -1011     993       1     981     996    1017    1032       1
     981     996    1017    1035       1     981     999   -1020    1032       1
     978     972     975     984       1     978     972     981     996       1
     978     972     981     999       1     978     990   -1002     984       1
     978     993   -1011     996       1     975     972     978     990       1
     975     972     978     993       1     975     972     981     996       1
     975     972     981     999       1     975     984   -1002     990       1
     972     975     984    1002       1     972     978    -990    1002       1
     972     978     993    1011       1     972     981    -996    1011       1
     972     981     996    1017       1     972     981     999    1020       1
    1161    1149    1158    1167       1    1161    1170   -1176    1167       1
    1158    1149    1161    1170       1    1158    1167   -1176    1170       1
    1152    1158    1149    1161       1    1152    1158    1167    1176       1
    1149    1158    1167    1176       1    1149    1161   -1170    1176       1
    1143    1125    1140    1149       1    1143    1152   -1158    1149       1
    1143    1152    1158    1167       1    1140    1125    1143    1152       1
    1140    1149   -1158    1152       1    1140    1149    1158    1167       1
    1140    1149    1161    1170       1    1128    1140    1125    1143       1
    1128    1140    1149    1158       1    1128    1140    1149    1161       1
    1125    1140    1149    1158       1    1125    1140    1149    1161       1
    1125    1143   -1152    1158       1    1119    1104    1125    1140       1
    1119    1104    1125    1143       1    1107    1089    1104    1119       1
    1107    1089    1104    1125       1    1107    1128   -1140    1125       1
    1107    1128    1140    1149       1    1104    1089    1107    1128       1
    1104    1125   -1140    1128       1    1104    1125    1140    1149       1
    1104    1125    1143    1152       1    1101    1086    1098    1110       1
    1101    1119    1104    1125       1    1098    1086    1101    1119       1
    1089    1080    1083    1092       1    1089    1080    1086    1098       1
    1089    1080    1086    1101       1    1089    1104   -1119    1101       1
    1089    1104    1125    1140       1    1089    1104    1125    1143       1
    1089    1107   -1128    1140       1    1086    1080    1083    1092       1
    1086    1080    1089    1104       1    1086    1080    1089    1107       1
    1086    1098   -1110    1092       1    1086    1101   -1119    1104       1
    1083    1080    1086    1098       1    1083    1080    1086    1101       1
    1083    1080    1089    1104       1    1083    1080    1089    1107       1
    1083    1092   -1110    1098       1    1080    1083    1092    1110       1
    1080    1086   -1098    1110       1    1080    1086    1101    1119       1
    1080    1089   -1104    1119       1    1080    1089    1104    1125       1
    1080    1089    1107    1128       1    1269    1257    1266    1275       1
    1269    1278   -1284    1275       1    1266    1257    1269    1278       1
    1266    1275   -1284    1278       1    1260    1266    1257    1269       1
    1260    1266    1275    1284       1    1257    1266    1275    1284       1
    1257    1269   -1278    1284       1    1251    1233    1248    1257       1
    1251    1260   -1266    1257       1    1251    1260    1266    1275       1
    1248    1233    1251    1260       1    1248    1257   -1266    1260       1
    1248    1257    1266    1275       1    1248    1257    1269    1278       1
    1236    1248    1233    1251       1    1236    1248    1257    1266       1
    1236    1248    1257    1269       1    1233    1248    1257    1266       1
    1233    1248    1257    1269       1    1233    1251   -1260    1266       1
    1227    1212    1233    1248       1    1227    1212    1233    1251       1
    1215    1197    1212    1227       1    1215    1197    1212    1233       1
    1215    1236   -1248    1233       1    1215    1236    1248    1257       1
    1212    1197    1215    1236       1    1212    1233   -1248    1236       1
    1212    1233    1248    1257       1    1212    1233    1251    1260       1
    1209    1194    1206    1218       1    1209    1227    1212    1233       1
    1206    1194    1209    1227       1    1197    1188    1191    1200       1
    1197    1188    1194    1206       1    1197    1188    1194    1209       1
    1197    1212   -1227    1209       1    1197    1212    1233    1248       1
    1197    1212    1233    1251       1    1197    1215   -1236    1248       1
    1194    1188    1191    1200       1    1194    1188    1197    1212       1
    1194    1188    1197    1215       1    1194    1206   -1218    1200       1
    1194    1209   -1227    1212       1    1191    1188    1194    1206       1
    1191    1188    1194    1209       1    1191    1188    1197    1212       1
    1191    1188    1197    1215       1    1191    1200   -1218    1206       1
    1188    1191    1200    1218       1    1188    1194   -1206    1218       1
    1188    1194    1209    1227       1    1188    1197   -1212    1227       1
    1188    1197    1212    1233       1    1188    1197    1215    1236       1
    1377    1365    1374    1383       1    1377    1386   -1392    1383       1
    1374    1365    1377    1386       1    1374    1383   -1392    1386       1
    1368    1374    1365    1377       1    1368    1374    1383    1392       1
    1365    1374    1383    1392       1    1365    1377   -1386    1392       1
    1359    1341    1356    1365       1    1359    1368   -1374    1365       1
    1359    1368    1374    1383       1    1356    1341    1359    1368       1
    1356    1365   -1374    1368       1    1356    1365    1374    1383       1
    1356    1365    1377    1386       1    1344    1356    1341    1359       1
    1344    1356    1365    1374       1    1344    1356    1365    1377       1
    1341    1356    1365    1374       1    1341    1356    1365    1377       1
    1341    1359   -1368    1374       1    1335    1320    1341    1356       1
    1335    1320    1341    1359       1    1323    1305    1320    1335       1
    1323    1305    1320    1341       1    1323    1344   -1356    1341       1
    1323    1344    1356    1365       1    1320    1305    1323    1344       1
    1320    1341   -1356    1344       1    1320    1341    1356    1365       1
    1320    1341    1359    1368       1    1317    1302    1314    1326       1
    1317    1335    1320    1341       1    1314    1302    1317    1335       1
    1305    1296    1299    1308       1    1305    1296    1302    1314       1
    1305    1296    1302    1317       1    1305    1320   -1335    1317       1
    1305    1320    1341    1356       1    1305    1320    1341    1359       1
    1305    1323   -1344    1356       1    1302    1296    1299    1308       1
    1302    1296    1305    1320       1    1302    1296    1305    1323       1
    1302    1314   -1326    1308       1    1302    1317   -1335    1320       1
    1299    1296    1302    1314       1    1299    1296    1302    1317       1
    1299    1296    1305    1320       1    1299    1296    1305    1323       1
    1299    1308   -1326    1314       1    1296    1299    1308    1326       1
    1296    1302   -1314    1326       1    1296    1302    1317    1335       1
    1296    1305   -1320    1335       1    1296    1305    1320    1341       1
    1296    1305    1323    1344       1    1485    1473    1482    1491       1
    1485    1494   -1500    1491       1    1482    1473    1485    1494       1
    1482    1491   -1500    1494       1    1476    1482    1473    1485       1
    1476    1482    1491    1500       1    1473    1482    1491    1500       1
    1473    1485   -1494    1500       1    1467    1449    1464    1473       1
    1467    1476   -1482    1473       1    1467    1476    1482    1491       1
    1464    1449    1467    1476       1    1464    1473   -1482    1476       1
    1464    1473    1482    1491       1    1464    1473    1485    1494       1
    1452    1464    1449    1467       1    1452    1464    1473    1482       1
    1452    1464    1473    1485       1    1449    1464    1473    1482       1
    1449    1464    1473    1485       1    1449    1467   -1476    1482       1
    1443    1428    1449    1464       1    1443    1428    1449    1467       1
    1431    1413    1428    1443       1    1431    1413    1428    1449       1
    1431    1452   -1464    1449       1    1431    1452    1464    1473       1
    1428    1413    1431    1452       1    1428    1449   -1464    1452       1
    1428    1449    1464    1473       1    1428    1449    1467    1476       1
    1425    1410    1422    1434       1    1425    1443    1428    1449       1
    1422    1410    1425    1443       1    1413    1404    1407    1416       1
    1413    1404    1410    1422       1    1413    1404    1410    1425       1
    1413    1428   -1443    1425       1    1413    1428    1449    1464       1
    1413    1428    1449    1467       1    1413    1431   -1452    1464       1
    1410    1404    1407    1416       1    1410    1404    1413    1428       1
    1410    1404    1413    1431       1    1410    1422   -1434    1416       1
    1410    1425   -1443    1428       1    1407    1404    1410    1422       1
    1407    1404    1410    1425       1    1407    1404    1413    1428       1
    1407    1404    1413    1431       1    1407    1416   -1434    1422       1
    1404    1407    1416    1434       1    1404    1410   -1422    1434       1
    1404    1410    1425    1443       1    1404    1413   -1428    1443       1
    1404    1413    1428    1449       1    1404    1413    1431    1452       1
    1593    1581    1590    1599       1    1593    1602   -1608    1599       1
    1590    1581    1593    1602       1    1590    1599   -1608    1602       1
    1584    1590    1581    1593       1    1584    1590    1599    1608       1
    1581    1590    1599    1608       1    1581    1593   -1602    1608       1
    1575    1557    1572    1581       1    1575    1584   -1590    1581       1
    1575    1584    1590    1599       1    1572    1557    1575    1584       1
    1572    1581   -1590    1584       1    1572    1581    1590    1599       1
    1572    1581    1593    1602       1    1560    1572    1557    1575       1
    1560    1572    1581    1590       1    1560    1572    1581    1593       1
    1557    1572    1581    1590       1    1557    1572    1581    1593       1
    1557    1575   -1584    1590       1    1551    1536    1557    1572       1
    1551    1536    1557    1575       1    1539    1521    1536    1551       1
    1539    1521    1536    1557       1    1539    1560   -1572    1557       1
    1539    1560    1572    1581       1    1536    1521    1539    1560       1
    1536    1557   -1572    1560       1    1536    1557    1572    1581       1
    1536    1557    1575    1584       1    1533    1518    1530    1542       1
    1533    1551    1536    1557       1    1530    1518    1533    1551       1
    1521    1512    1515    1524       1    1521    1512    1518    1530       1
    1521    1512    1518    1533       1    1521    1536   -1551    1533       1
    1521    1536    1557    1572       1    1521    1536    1557    1575       1
    1521    1539   -1560    1572       1    1518    1512    1515    1524       1
    1518    1512    1521    1536       1    1518    1512    1521    1539       1
    1518    1530   -1542    1524       1    1518    1533   -1551    1536       1
    1515    1512    1518    1530       1    1515    1512    1518    1533       1
    1515    1512    1521    1536       1    1515    1512    1521    1539       1
    1515    1524   -1542    1530       1    1512    1515    1524    1542       1
    1512    1518   -1530    1542       1    1512    1518    1533    1551       1
    1512    1521   -1536    1551       1    1512    1521    1536    1557       1
    1512    1521    1539    1560       1    1701    1689    1698    1707       1
    1701    1710   -1716    1707       1    1698    1689    1701    1710       1
    1698    1707   -1716    1710       1    1692    1698    1689    1701       1
    1692    1698    1707    1716       1    1689    1698    1707    1716       1
    1689    1701   -1710    1716       1    1683    1665    1680    1689       1
    1683    1692   -1698    1689       1    1683    1692    1698    1707       1
    1680    1665    1683    1692       1    1680    1689   -1698    1692       1
    1680    1689    1698    1707       1    1680    1689    1701    1710       1
    1668    1680    1665    1683       1    1668    1680    1689    1698       1
    1668    1680    1689    1701       1    1665    1680    1689    1698       1
    1665    1680    1689    1701       1    1665    1683   -1692    1698       1
    1659    1644    1665    1680       1    1659    1644    1665    1683       1
    1647    1629    1644    1659       1    1647    1629    1644    1665       1
    1647    1668   -1680    1665       1    1647    1668    1680    1689       1
    1644    1629    1647    1668       1    1644    1665   -1680    1668       1
    1644    1665    1680    1689       1    1644    1665    1683    1692       1
    1641    1626    1638    1650       1    1641    1659    1644    1665       1
    1638    1626    1641    1659       1    1629    1620    1623    1632       1
    1629    1620    1626    1638       1    1629    1620    1626    1641       1
    1629    1644   -1659    1641       1    1629    1644    1665    1680       1
    1629    1644    1665    1683       1    1629    1647   -1668    1680       1
    1626    1620    1623    1632       1    1626    1620    1629    1644       1
    1626    1620    1629    1647       1    1626    1638   -1650    1632       1
    1626    1641   -1659    1644       1    1623    1620    1626    1638       1
    1623    1620    1626    1641       1    1623    1620    1629    1644       1
    1623    1620    1629    1647       1    1623    1632   -1650    1638       1
    1620    1623    1632    1650       1    1620    1626   -1638    1650       1
    1620    1626    1641    1659       1    1620    1629   -1644    1659       1
    1620    1629    1644    1665       1    1620    1629    1647    1668       1
    1809    1797    1806    1815       1    1809    1818   -1824    1815       1
    1806    1797    1809    1818       1    1806    1815   -1824    1818       1
    1800    1806    1797    1809       1    1800    1806    1815    1824       1
    1797    1806    1815    1824       1    1797    1809   -1818    1824       1
    1791    1773    1788    1797       1    1791    1800   -1806    1797       1
    1791    1800    1806    1815       1    1788    1773    1791    1800       1
    1788    1797   -1806    1800       1    1788    1797    1806    1815       1
    1788    1797    1809    1818       1    1776    1788    1773    1791       1
    1776    1788    1797    1806       1    1776    1788    1797    1809       1
    1773    1788    1797    1806       1    1773    1788    1797    1809       1
    1773    1791   -1800    1806       1    1767    1752    1773    1788       1
    1767    1752    1773    1791       1    1755    1737    1752    1767       1
    1755    1737    1752    1773       1    1755    1776   -1788    1773       1
    1755    1776    1788    1797       1    1752    1737    1755    1776       1
    1752    1773   -1788    1776       1    1752    1773    1788    1797       1
    1752    1773    1791    1800       1    1749    1734    1746    1758       1
    1749    1767    1752    1773       1    1746    1734    1749    1767       1
    1737    1728    1731    1740       1    1737    1728    1734    1746       1
    1737    1728    1734    1749       1    1737    1752   -1767    1749       1
    1737    1752    1773    1788       1    1737    1752    1773    1791       1
    1737    1755   -1776    1788       1    1734    1728    1731    1740       1
    1734    1728    1737    1752       1    1734    1728    1737    1755       1
    1734    1746   -1758    1740       1    1734    1749   -1767    1752       1
    1731    1728    1734    1746       1    1731    1728    1734    1749       1
    1731    1728    1737    1752       1    1731    1728    1737    1755       1
    1731    1740   -1758    1746       1    1728    1731    1740    1758       1
    1728    1734   -1746    1758       1    1728    1734    1749    1767       1
    1728    1737   -1752    1767       1    1728    1737    1752    1773       1
    1728    1737    1755    1776       1    1917    1905    1914    1923       1
    1917    1926   -1932    1923       1    1914    1905    1917    1926       1
    1914    1923   -1932    1926       1    1908    1914    1905    1917       1
    1908    1914    1923    1932       1    1905    1914    1923    1932       1
    1905    1917   -1926    1932       1    1899    1881    1896    1905       1
    1899    1908   -1914    1905       1    1899    1908    1914    1923       1
    1896    1881    1899    1908       1    1896    1905   -1914    1908       1
    1896    1905    1914    1923       1    1896    1905    1917    1926       1
    1884    1896    1881    1899       1    1884    1896    1905    1914       1
    1884    1896    1905    1917       1    1881    1896    1905    1914       1
    1881    1896    1905    1917       1    1881    1899   -1908    1914       1
    1875    1860    1881    1896       1    1875    1860    1881    1899       1
    1863    1845    1860    1875       1    1863    1845    1860    1881       1
    1863    1884   -1896    1881       1    1863    1884    1896    1905       1
    1860    1845    1863    1884       1    1860    1881   -1896    1884       1
    1860    1881    1896    1905       1    1860    1881    1899    1908       1
    1857    1842    1854    1866       1    1857    1875    1860    1881       1
    1854    1842    1857    1875       1    1845    1836    1839    1848       1
    1845    1836    1842    1854       1    1845    1836    1842    1857       1
    1845    1860   -1875    1857       1    1845    1860    1881    1896       1
    1845    1860    1881    1899       1    1845    1863   -1884    1896       1
    1842    1836    1839    1848       1    1842    1836    1845    1860       1
    1842    1836    1845    1863       1    1842    1854   -1866    1848       1
    1842    1857   -1875    1860       1    1839    1836    1842    1854       1
    1839    1836    1842    1857       1    1839    1836    1845    1860       1
    1839    1836    1845    1863       1    1839    1848   -1866    1854       1
    1836    1839    1848    1866       1    1836    1842   -1854    1866       1
    1836    1842    1857    1875       1    1836    1845   -1860    1875       1
    1836    1845    1860    1881       1    1836    1845    1863    1884       1
    2025    2013    2022    2031       1    2025    2034   -2040    2031       1
    2022    2013    2025    2034       1    2022    2031   -2040    2034       1
    2016    2022    2013    2025       1    2016    2022    2031    2040       1
    2013    2022    2031    2040       1    2013    2025   -2034    2040       1
    2007    1989    2004    2013       1    2007    2016   -2022    2013       1
    2007    2016    2022    2031       1    2004    1989    2007    2016       1
    2004    2013   -2022    2016       1    2004    2013    2022    2031       1
    2004    2013    2025    2034       1    1992    2004    1989    2007       1
    1992    2004    2013    2022       1    1992    2004    2013    2025       1
    1989    2004    2013    2022       1    1989    2004    2013    2025       1
    1989    2007   -2016    2022       1    1983    1968    1989    2004       1
    1983    1968    1989    2007       1    1971    1953    1968    1983       1
    1971    1953    1968    1989       1    1971    1992   -2004    1989       1
    1971    1992    2004    2013       1    1968    1953    1971    1992       1
    1968    1989   -2004    1992       1    1968    1989    2004    2013       1
    1968    1989    2007    2016       1    1965    1950    1962    1974       1
    1965    1983    1968    1989       1    1962    1950    1965    1983       1
    1953    1944    1947    1956       1    1953    1944    1950    1962       1
    1953    1944    1950    1965       1    1953    1968   -1983    1965       1
    1953    1968    1989    2004       1    1953    1968    1989    2007       1
    1953    1971   -1992    2004       1    1950    1944    1947    1956       1
    1950    1944    1953    1968       1    1950    1944    1953    1971       1
    1950    1962   -1974    1956       1    1950    1965   -1983    1968       1
    1947    1944    1950    1962       1    1947    1944    1950    1965       1
    1947    1944    1953    1968       1    1947    1944    1953    1971       1
    1947    1956   -1974    1962       1    1944    1947    1956    1974       1
    1944    1950   -1962    1974       1    1944    1950    1965    1983       1
    1944    1953   -1968    1983       1    1944    1953    1968    1989       1
    1944    1953    1971    1992       1    2133    2121    2130    2139       1
    2133    2142   -2148    2139       1    2130    2121    2133    2142       1
    2130    2139   -2148    2142       1    2124    2130    2121    2133       1
    2124    2130    2139    2148       1    2121    2130    2139    2148       1
    2121    2133   -2142    2148       1    2115    2097    2112    2121       1
    2115    2124   -2130    2121       1    2115    2124    2130    2139       1
    2112    2097    2115    2124       1    2112    2121   -2130    2124       1
    2112    2121    2130    2139       1    2112    2121    2133    2142       1
    2100    2112    2097    2115       1    2100    2112    2121    2130       1
    2100    2112    2121    2133       1    2097    2112    2121    2130       1
    2097    2112    2121    2133       1    2097    2115   -2124    2130       1
    2091    2076    2097    2112       1    2091    2076    2097    2115       1
    2079    2061    2076    2091       1    2079    2061    2076    2097       1
    2079    2100   -2112    2097       1    2079    2100    2112    2121       1
    2076    2061    2079    2100       1    2076    2097   -2112    2100       1
    2076    2097    2112    2121       1    2076    2097    2115    2124       1
    2073    2058    2070    2082       1    2073    2091    2076    2097       1
    2070    2058    2073    2091       1    2061    2052    2055    2064       1
    2061    2052    2058    2070       1    2061    2052    2058    2073       1
    2061    2076   -2091    2073       1    2061    2076    2097    2112       1
    2061    2076    2097    2115       1    2061    2079   -2100    2112       1
    2058    2052    2055    2064       1    2058    2052    2061    2076       1
    2058    2052    2061    2079       1    2058    2070   -2082    2064       1
    2058    2073   -2091    2076       1    2055    2052    2058    2070       1
    2055    2052    2058    2073       1    2055    2052    2061    2076       1
    2055    2052    2061    2079       1    2055    2064   -2082    2070       1
    2052    2055    2064    2082       1    2052    2058   -2070    2082       1
    2052    2058    2073    2091       1    2052    2061   -2076    2091       1
    2052    2061    2076    2097       1    2052    2061    2079    2100       1
    2241    2229    2238    2247       1    2241    2250   -2256    2247       1
    2238    2229    2241    2250       1    2238    2247   -2256    2250       1
    2232    2238    2229    2241       1    2232    2238    2247    2256       1
    2229    2238    2247    2256       1    2229    2241   -2250    2256       1
    2223    2205    2220    2229       1    2223    2232   -2238    2229       1
    2223    2232    2238    2247       1    2220    2205    2223    2232       1
    2220    2229   -2238    2232       1    2220    2229    2238    2247       1
    2220    2229    2241    2250       1    2208    2220    2205    2223       1
    2208    2220    2229    2238       1    2208    2220    2229    2241       1
    2205    2220    2229    2238       1    2205    2220    2229    2241       1
    2205    2223   -2232    2238       1    2199    2184    2205    2220       1
    2199    2184    2205    2223       1    2187    2169    2184    2199       1
    2187    2169    2184    2205       1    2187    2208   -2220    2205       1
    2187    2208    2220    2229       1    2184    2169    2187    2208       1
    2184    2205   -2220    2208       1    2184    2205    2220    2229       1
    2184    2205    2223    2232       1    2181    2166    2178    2190       1
    2181    2199    2184    2205       1    2178    2166    2181    2199       1
    2169    2160    2163    2172       1    2169    2160    2166    2178       1
    2169    2160    2166    2181       1    2169    2184   -2199    2181       1
    2169    2184    2205    2220       1    2169    2184    2205    2223       1
    2169    2187   -2208    2220       1    2166    2160    2163    2172       1
    2166    2160    2169    2184       1    2166    2160    2169    2187       1
    2166    2178   -2190    2172       1    2166    2181   -2199    2184       1
    2163    2160    2166    2178       1    2163    2160    2166    2181       1
    2163    2160    2169    2184       1    2163    2160    2169    2187       1
    2163    2172   -2190    2178       1    2160    2163    2172    2190       1
    2160    2166   -2178    2190       1    2160    2166    2181    2199       1
    2160    2169   -2184    2199       1    2160    2169    2184    2205       1
    2160    2169    2187    2208       1    2349    2337    2346    2355       1
    2349    2358   -2364    2355       1    2346    2337    2349    2358       1
    2346    2355   -2364    2358       1    2340    2346    2337    2349       1
    2340    2346    2355    2364       1    2337    2346    2355    2364       1
    2337    2349   -2358    2364       1    2331    2313    2328    2337       1
    2331    2340   -2346    2337       1    2331    2340    2346    2355       1
    2328    2313    2331    2340       1    2328    2337   -2346    2340       1
    2328    2337    2346    2355       1    2328    2337    2349    2358       1
    2316    2328    2313    2331       1    2316    2328    2337    2346       1
    2316    2328    2337    2349       1    2313    2328    2337    2346       1
    2313    2328    2337    2349       1    2313    2331   -2340    2346       1
    2307    2292    2313    2328       1    2307    2292    2313    2331       1
    2295    2277    2292    2307       1    2295    2277    2292    2313       1
    2295    2316   -2328    2313       1    2295    2316    2328    2337       1
    2292    2277    2295    2316       1    2292    2313   -2328    2316       1
    2292    2313    2328    2337       1    2292    2313    2331    2340       1
    2289    2274    2286    2298       1    2289    2307    2292    2313       1
    2286    2274    2289    2307       1    2277    2268    2271    2280       1
    2277    2268    2274    2286       1    2277    2268    2274    2289       1
    2277    2292   -2307    2289       1    2277    2292    2313    2328       1
    2277    2292    2313    2331       1    2277    2295   -2316    2328       1
    2274    2268    2271    2280       1    2274    2268    2277    2292       1
    2274    2268    2277    2295       1    2274    2286   -2298    2280       1
    2274    2289   -2307    2292       1    2271    2268    2274    2286       1
    2271    2268    2274    2289       1    2271    2268    2277    2292       1
    2271    2268    2277    2295       1    2271    2280   -2298    2286       1
    2268    2271    2280    2298       1    2268    2274   -2286    2298       1
    2268    2274    2289    2307       1    2268    2277   -2292    2307       1
    2268    2277    2292    2313       1    2268    2277    2295    2316       1
    2457    2445    2454    2463       1    2457    2466   -2472    2463       1
    2454    2445    2457    2466       1    2454    2463   -2472    2466       1
    2448    2454    2445    2457       1    2448    2454    2463    2472       1
    2445    2454    2463    2472       1    2445    2457   -2466    2472       1
    2439    2421    2436    2445       1    2439    2448   -2454    2445       1
    2439    2448    2454    2463       1    2436    2421    2439    2448       1
    2436    2445   -2454    2448       1    2436    2445    2454    2463       1
    2436    2445    2457    2466       1    2424    2436    2421    2439       1
    2424    2436    2445    2454       1    2424    2436    2445    2457       1
    2421    2436    2445    2454       1    2421    2436    2445    2457       1
    2421    2439   -2448    2454       1    2415    2400    2421    2436       1
    2415    2400    2421    2439       1    2403    2385    2400    2415       1
    2403    2385    2400    2421       1    2403    2424   -2436    2421       1
    2403    2424    2436    2445       1    2400    2385    2403    2424       1
    2400    2421   -2436    2424       1    2400    2421    2436    2445       1
    2400    2421    2439    2448       1    2397    2382    2394    2406       1
    2397    2415    2400    2421       1    2394    2382    2397    2415       1
    2385    2376    2379    2388       1    2385    2376    2382    2394       1
    2385    2376    2382    2397       1    2385    2400   -2415    2397       1
    2385    2400    2421    2436       1    2385    2400    2421    2439       1
    2385    2403   -2424    2436       1    2382    2376    2379    2388       1
    2382    2376    2385    2400       1    2382    2376    2385    2403       1
    2382    2394   -2406    2388       1    2382    2397   -2415    2400       1
    2379    2376    2382    2394       1    2379    2376    2382    2397       1
    2379    2376    2385    2400       1    2379    2376    2385    2403       1
    2379    2388   -2406    2394       1    2376    2379    2388    2406       1
    2376    2382   -2394    2406       1    2376    2382    2397    2415       1
    2376    2385   -2400    2415       1    2376    2385    2400    2421       1
    2376    2385    2403    2424       1    2565    2553    2562    2571       1
    2565    2574   -2580    2571       1    2562    2553    2565    2574       1
    2562    2571   -2580    2574       1    2556    2562    2553    2565       1
    2556    2562    2571    2580       1    2553    2562    2571    2580       1
    2553    2565   -2574    2580       1    2547    2529    2544    2553       1
    2547    2556   -2562    2553       1    2547    2556    2562    2571       1
    2544    2529    2547    2556       1    2544    2553   -2562    2556       1
    2544    2553    2562    2571       1    2544    2553    2565    2574       1
    2532    2544    2529    2547       1    2532    2544    2553    2562       1
    2532    2544    2553    2565       1    2529    2544    2553    2562       1
    2529    2544    2553    2565       1    2529    2547   -2556    2562       1
    2523    2508    2529    2544       1    2523    2508    2529    2547       1
    2511    2493    2508    2523       1    2511    2493    2508    2529       1
    2511    2532   -2544    2529       1    2511    2532    2544    2553       1
    2508    2493    2511    2532       1    2508    2529   -2544    2532       1
    2508    2529    2544    2553       1    2508    2529    2547    2556       1
    2505    2490    2502    2514       1    2505    2523    2508    2529       1
    2502    2490    2505    2523       1    2493    2484    2487    2496       1
    2493    2484    2490    2502       1    2493    2484    2490    2505       1
    2493    2508   -2523    2505       1    2493    2508    2529    2544       1
    2493    2508    2529    2547       1    2493    2511   -2532    2544       1
    2490    2484    2487    2496       1    2490    2484    2493    2508       1
    2490    2484    2493    2511       1    2490    2502   -2514    2496       1
    2490    2505   -2523    2508       1    2487    2484    2490    2502       1
    2487    2484    2490    2505       1    2487    2484    2493    2508       1
    2487    2484    2493    2511       1    2487    2496   -2514    2502       1
    2484    2487    2496    2514       1    2484    2490   -2502    2514       1
    2484    2490    2505    2523       1    2484    2493   -2508    2523       1
    2484    2493    2508    2529       1    2484    2493    2511    2532       1
    2673    2661    2670    2679       1    2673    2682   -2688    2679       1
    2670    2661    2673    2682       1    2670    2679   -2688    2682       1
    2664    2670    2661    2673       1    2664    2670    2679    2688       1
    2661    2670    2679    2688       1    2661    2673   -2682    2688       1
    2655    2637    2652    2661       1    2655    2664   -2670    2661       1
    2655    2664    2670    2679       1    2652    2637    2655    2664       1
    2652    2661   -2670    2664       1    2652    2661    2670    2679       1
    2652    2661    2673    2682       1    2640    2652    2637    2655       1
    2640    2652    2661    2670       1    2640    2652    2661    2673       1
    2637    2652    2661    2670       1    2637    2652    2661    2673       1
    2637    2655   -2664    2670       1    2631    2616    2637    2652       1
    2631    2616    2637    2655       1    2619    2601    2616    2631       1
    2619    2601    2616    2637       1    2619    2640   -2652    2637       1
    2619    2640    2652    2661       1    2616    2601    2619    2640       1
    2616    2637   -2652    2640       1    2616    2637    2652    2661       1
    2616    2637    2655    2664       1    2613    2598    2610    2622       1
    2613    2631    2616    2637       1    2610    2598    2613    2631       1
    2601    2592    2595    2604       1    2601    2592    2598    2610       1
    2601    2592    2598    2613       1    2601    2616   -2631    2613       1
    2601    2616    2637    2652       1    2601    2616    2637    2655       1
    2601    2619   -2640    2652       1    2598    2592    2595    2604       1
    2598    2592    2601    2616       1    2598    2592    2601    2619       1
    2598    2610   -2622    2604       1    2598    2613   -2631    2616       1
    2595    2592    2598    2610       1    2595    2592    2598    2613       1
    2595    2592    2601    2616       1    2595    2592    2601    2619       1
    2595    2604   -2622    2610       1    2592    2595    2604    2622       1
    2592    2598   -2610    2622       1    2592    2598    2613    2631       1
    2592    2601   -2616    2631       1    2592    2601    2616    2637       1
    2592    2601    2619    2640       1    2781    2769    2778    2787       1
    2781    2790   -2796    2787       1    2778    2769    2781    2790       1
    2778    2787   -2796    2790       1    2772    2778    2769    2781       1
    2772    2778    2787    2796       1    2769    2778    2787    2796       1
    2769    2781   -2790    2796       1    2763    2745    2760    2769       1
    2763    2772   -2778    2769       1    2763    2772    2778    2787       1
    2760    2745    2763    2772       1    2760    2769   -2778    2772       1
    2760    2769    2778    2787       1    2760    2769    2781    2790       1
    2748    2760    2745    2763       1    2748    2760    2769    2778       1
    2748    2760    2769    2781       1    2745    2760    2769    2778       1
    2745    2760    2769    2781       1    2745    2763   -2772    2778       1
    2739    2724    2745    2760       1    2739    2724    2745    2763       1
    2727    2709    2724    2739       1    2727    2709    2724    2745       1
    2727    2748   -2760    2745       1    2727    2748    2760    2769       1
    2724    2709    2727    2748       1    2724    2745   -2760    2748       1
    2724    2745    2760    2769       1    2724    2745    2763    2772       1
    2721    2706    2718    2730       1    2721    2739    2724    2745       1
    2718    2706    2721    2739       1    2709    2700    2703    2712       1
    2709    2700    2706    2718       1    2709    2700    2706    2721       1
    2709    2724   -2739    2721       1    2709    2724    2745    2760       1
    2709    2724    2745    2763       1    2709    2727   -2748    2760       1
    2706    2700    2703    2712       1    2706    2700    2709    2724       1
    2706    2700    2709    2727       1    2706    2718   -2730    2712       1
    2706    2721   -2739    2724       1    2703    2700    2706    2718       1
    2703    2700    2706    2721       1    2703    2700    2709    2724       1
    2703    2700    2709    2727       1    2703    2712   -2730    2718       1
    2700    2703    2712    2730       1    2700    2706   -2718    2730       1
    2700    2706    2721    2739       1    2700    2709   -2724    2739       1
    2700    2709    2724    2745       1    2700    2709    2727    2748       1
    2889    2877    2886    2895       1    2889    2898   -2904    2895       1
    2886    2877    2889    2898       1    2886    2895   -2904    2898       1
    2880    2886    2877    2889       1    2880    2886    2895    2904       1
    2877    2886    2895    2904       1    2877    2889   -2898    2904       1
    2871    2853    2868    2877       1    2871    2880   -2886    2877       1
    2871    2880    2886    2895       1    2868    2853    2871    2880       1
    2868    2877   -2886    2880       1    2868    2877    2886    2895       1
    2868    2877    2889    2898       1    2856    2868    2853    2871       1
    2856    2868    2877    2886       1    2856    2868    2877    2889       1
    2853    2868    2877    2886       1    2853    2868    2877    2889       1
    2853    2871   -2880    2886       1    2847    2832    2853    2868       1
    2847    2832    2853    2871       1    2835    2817    2832    2847       1
    2835    2817    2832    2853       1    2835    2856   -2868    2853       1
    2835    2856    2868    2877       1    2832    2817    2835    2856       1
    2832    2853   -2868    2856       1    2832    2853    2868    2877       1
    2832    2853    2871    2880       1    2829    2814    2826    2838       1
    2829    2847    2832    2853       1    2826    2814    2829    2847       1
    2817    2808    2811    2820       1    2817    2808    2814    2826       1
    2817    2808    2814    2829       1    2817    2832   -2847    2829       1
    2817    2832    2853    2868       1    2817    2832    2853    2871       1
    2817    2835   -2856    2868       1    2814    2808    2811    2820       1
    2814    2808    2817    2832       1    2814    2808    2817    2835       1
    2814    2826   -2838    2820       1    2814    2829   -2847    2832       1
    2811    2808    2814    2826       1    2811    2808    2814    2829       1
    2811    2808    2817    2832       1    2811    2808    2817    2835       1
    2811    2820   -2838    2826       1    2808    2811    2820    2838       1
    2808    2814   -2826    2838       1    2808    2814    2829    2847       1
    2808    2817   -2832    2847       1    2808    2817    2832    2853       1
    2808    2817    2835    2856       1    2997    2985    2994    3003       1
    2997    3006   -3012    3003       1    2994    2985    2997    3006       1
    2994    3003   -3012    3006       1    2988    2994    2985    2997       1
    2988    2994    3003    3012       1    2985    2994    3003    3012       1
    2985    2997   -3006    3012       1    2979    2961    2976    2985       1
    2979    2988   -2994    2985       1    2979    2988    2994    3003       1
    2976    2961    2979    2988       1    2976    2985   -2994    2988       1
    2976    2985    2994    3003       1    2976    2985    2997    3006       1
    2964    2976    2961    2979       1    2964    2976    2985    2994       1
    2964    2976    2985    2997       1    2961    2976    2985    2994       1
    2961    2976    2985    2997       1    2961    2979   -2988    2994       1
    2955    2940    2961    2976       1    2955    2940    2961    2979       1
    2943    2925    2940    2955       1    2943    2925    2940    2961       1
    2943    2964   -2976    2961       1    2943    2964    2976    2985       1
    2940    2925    2943    2964       1    2940    2961   -2976    2964       1
    2940    2961    2976    2985       1    2940    2961    2979    2988       1
    2937    2922    2934    2946       1    2937    2955    2940    2961       1
    2934    2922    2937    2955       1    2925    2916    2919    2928       1
    2925    2916    2922    2934       1    2925    2916    2922    2937       1
    2925    2940   -2955    2937       1    2925    2940    2961    2976       1
    2925    2940    2961    2979       1    2925    2943   -2964    2976       1
    2922    2916    2919    2928       1    2922    2916    2925    2940       1
    2922    2916    2925    2943       1    2922    2934   -2946    2928       1
    2922    2937   -2955    2940       1    2919    2916    2922    2934       1
    2919    2916    2922    2937       1    2919    2916    2925    2940       1
    2919    2916    2925    2943       1    2919    2928   -2946    2934       1
    2916    2919    2928    2946       1    2916    2922   -2934    2946       1
    2916    2922    2937    2955       1    2916    2925   -2940    2955       1
    2916    2925    2940    2961       1    2916    2925    2943    2964       1
    3105    3093    3102    3111       1    3105    3114   -3120    3111       1
    3102    3093    3105    3114       1    3102    3111   -3120    3114       1
    3096    3102    3093    3105       1    3096    3102    3111    3120       1
    3093    3102    3111    3120       1    3093    3105   -3114    3120       1
    3087    3069    3084    3093       1    3087    3096   -3102    3093       1
    3087    3096    3102    3111       1    3084    3069    3087    3096       1
    3084    3093   -3102    3096       1    3084    3093    3102    3111       1
    3084    3093    3105    3114       1    3072    3084    3069    3087       1
    3072    3084    3093    3102       1    3072    3084    3093    3105       1
    3069    3084    3093    3102       1    3069    3084    3093    3105       1
    3069    3087   -3096    3102       1    3063    3048    3069    3084       1
    3063    3048    3069    3087       1    3051    3033    3048    3063       1
    3051    3033    3048    3069       1    3051    3072   -3084    3069       1
    3051    3072    3084    3093       1    3048    3033    3051    3072       1
    3048    3069   -3084    3072       1    3048    3069    3084    3093       1
    3048    3069    3087    3096       1    3045    3030    3042    3054       1
    3045    3063    3048    3069       1    3042    3030    3045    3063       1
    3033    3024    3027    3036       1    3033    3024    3030    3042       1
    3033    3024    3030    3045       1    3033    3048   -3063    3045       1
    3033    3048    3069    3084       1    3033    3048    3069    3087       1
    3033    3051   -3072    3084       1    3030    3024    3027    3036       1
    3030    3024    3033    3048       1    3030    3024    3033    3051       1
    3030    3042   -3054    3036       1    3030    3045   -3063    3048       1
    3027    3024    3030    3042       1    3027    3024    3030    3045       1
    3027    3024    3033    3048       1    3027    3024    3033    3051       1
    3027    3036   -3054    3042       1    3024    3027    3036    3054       1
    3024    3030   -3042    3054       1    3024    3030    3045    3063       1
    3024    3033   -3048    3063       1    3024    3033    3048    3069       1
    3024    3033    3051    3072       1    3213    3201    3210    3219       1
    3213    3222   -3228    3219       1    3210    3201    3213    3222       1
    3210    3219   -3228    3222       1    3204    3210    3201    3213       1
    3204    3210    3219    3228       1    3201    3210    3219    3228       1
    3201    3213   -3222    3228       1    3195    3177    3192    3201       1
    3195    3204   -3210    3201       1    3195    3204    3210    3219       1
    3192    3177    3195    3204       1    3192    3201   -3210    3204       1
    3192    3201    3210    3219       1    3192    3201    3213    3222       1
    3180    3192    3177    3195       1    3180    3192    3201    3210       1
    3180    3192    3201    3213       1    3177    3192    3201    3210       1
    3177    3192    3201    3213       1    3177    3195   -3204    3210       1
    3171    3156    3177    3192       1    3171    3156    3177    3195       1
    3159    3141    3156    3171       1    3159    3141    3156    3177       1
    3159    3180   -3192    3177       1    3159    3180    3192    3201       1
    3156    3141    3159    3180       1    3156    3177   -3192    3180       1
    3156    3177    3192    3201       1    3156    3177    3195    3204       1
    3153    3138    3150    3162       1    3153    3171    3156    3177       1
    3150    3138    3153    3171       1    3141    3132    3135    3144       1
    3141    3132    3138    3150       1    3141    3132    3138    3153       1
    3141    3156   -3171    3153       1    3141    3156    3177    3192       1
    3141    3156    3177    3195       1    3141    3159   -3180    3192       1
    3138    3132    3135    3144       1    3138    3132    3141    3156       1
    3138    3132    3141    3159       1    3138    3150   -3162    3144       1
    3138    3153   -3171    3156       1    3135    3132    3138    3150       1
    3135    3132    3138    3153       1    3135    3132    3141    3156       1
    3135    3132    3141    3159       1    3135    3144   -3162    3150       1
    3132    3135    3144    3162       1    3132    3138   -3150    3162       1
    3132    3138    3153    3171       1    3132    3141   -3156    3171       1
    3132    3141    3156    3177       1    3132    3141    3159    3180       1
    3321    3309    3318    3327       1    3321    3330   -3336    3327       1
    3318    3309    3321    3330       1    3318    3327   -3336    3330       1
    3312    3318    3309    3321       1    3312    3318    3327    3336       1
    3309    3318    3327    3336       1    3309    3321   -3330    3336       1
    3303    3285    3300    3309       1    3303    3312   -3318    3309       1
    3303    3312    3318    3327       1    3300    3285    3303    3312       1
    3300    3309   -3318    3312       1    3300    3309    3318    3327       1
    3300    3309    3321    3330       1    3288    3300    3285    3303       1
    3288    3300    3309    3318       1    3288    3300    3309    3321       1
    3285    3300    3309    3318       1    3285    3300    3309    3321       1
    3285    3303   -3312    3318       1    3279    3264    3285    3300       1
    3279    3264    3285    3303       1    3267    3249    3264    3279       1
    3267    3249    3264    3285       1    3267    3288   -3300    3285       1
    3267    3288    3300    3309       1    3264    3249    3267    3288       1
    3264    3285   -3300    3288       1    3264    3285    3300    3309       1
    3264    3285    3303    3312       1    3261    3246    3258    3270       1
    3261    3279    3264    3285       1    3258    3246    3261    3279       1
    3249    3240    3243    3252       1    3249    3240    3246    3258       1
    3249    3240    3246    3261       1    3249    3264   -3279    3261       1
    3249    3264    3285    3300       1    3249    3264    3285    3303       1
    3249    3267   -3288    3300       1    3246    3240    3243    3252       1
    3246    3240    3249    3264       1    3246    3240    3249    3267       1
    3246    3258   -3270    3252       1    3246    3261   -3279    3264       1
    3243    3240    3246    3258       1    3243    3240    3246    3261       1
    3243    3240    3249    3264       1    3243    3240    3249    3267       1
    3243    3252   -3270    3258       1    3240    3243    3252    3270       1
    3240    3246   -3258    3270       1    3240    3246    3261    3279       1
    3240    3249   -3264    3279       1    3240    3249    3264    3285       1
    3240    3249    3267    3288       1    3429    3417    3426    3435       1
    3429    3438   -3444    3435       1    3426    3417    3429    3438       1
    3426    3435   -3444    3438       1    3420    3426    3417    3429       1
    3420    3426    3435    3444       1    3417    3426    3435    3444       1
    3417    3429   -3438    3444       1    3411    3393    3408    3417       1
    3411    3420   -3426    3417       1    3411    3420    3426    3435       1
    3408    3393    3411    3420       1    3408    3417   -3426    3420       1
    3408    3417    3426    3435       1    3408    3417    3429    3438       1
    3396    3408    3393    3411       1    3396    3408    3417    3426       1
    3396    3408    3417    3429       1    3393    3408    3417    3426       1
    3393    3408    3417    3429       1    3393    3411   -3420    3426       1
    3387    3372    3393    3408       1    3387    3372    3393    3411       1
    3375    3357    3372    3387       1    3375    3357    3372    3393       1
    3375    3396   -3408    3393       1    3375    3396    3408    3417       1
    3372    3357    3375    3396       1    3372    3393   -3408    3396       1
    3372    3393    3408    3417       1    3372    3393    3411    3420       1
    3369    3354    3366    3378       1    3369    3387    3372    3393       1
    3366    3354    3369    3387       1    3357    3348    3351    3360       1
    3357    3348    3354    3366       1    3357    3348    3354    3369       1
    3357    3372   -3387    3369       1    3357    3372    3393    3408       1
    3357    3372    3393    3411       1    3357    3375   -3396    3408       1
    3354    3348    3351    3360       1    3354    3348    3357    3372       1
    3354    3348    3357    3375       1    3354    3366   -3378    3360       1
    3354    3369   -3387    3372       1    3351    3348    3354    3366       1
    3351    3348    3354    3369       1    3351    3348    3357    3372       1
    3351    3348    3357    3375       1    3351    3360   -3378    3366       1
    3348    3351    3360    3378       1    3348    3354   -3366    3378       1
    3348    3354    3369    3387       1    3348    3357   -3372    3387       1
    3348    3357    3372    3393       1    3348    3357    3375    3396       1
    3537    3525    3534    3543       1    3537    3546   -3552    3543       1
    3534    3525    3537    3546       1    3534    3543   -3552    3546       1
    3528    3534    3525    3537       1    3528    3534    3543    3552       1
    3525    3534    3543    3552       1    3525    3537   -3546    3552       1
    3519    3501    3516    3525       1    3519    3528   -3534    3525       1
    3519    3528    3534    3543       1    3516    3501    3519    3528       1
    3516    3525   -3534    3528       1    3516    3525    3534    3543       1
    3516    3525    3537    3546       1    3504    3516    3501    3519       1
    3504    3516    3525    3534       1    3504    3516    3525    3537       1
    3501    3516    3525    3534       1    3501    3516    3525    3537       1
    3501    3519   -3528    3534       1    3495    3480    3501    3516       1
    3495    3480    3501    3519       1    3483    3465    3480    3495       1
    3483    3465    3480    3501       1    3483    3504   -3516    3501       1
    3483    3504    3516    3525       1    3480    3465    3483    3504       1
    3480    3501   -3516    3504       1    3480    3501    3516    3525       1
    3480    3501    3519    3528       1    3477    3462    3474    3486       1
    3477    3495    3480    3501       1    3474    3462    3477    3495       1
    3465    3456    3459    3468       1    3465    3456    3462    3474       1
    3465    3456    3462    3477       1    3465    3480   -3495    3477       1
    3465    3480    3501    3516       1    3465    3480    3501    3519       1
    3465    3483   -3504    3516       1    3462    3456    3459    3468       1
    3462    3456    3465    3480       1    3462    3456    3465    3483       1
    3462    3474   -3486    3468       1    3462    3477   -3495    3480       1
    3459    3456    3462    3474       1    3459    3456    3462    3477       1
    3459    3456    3465    3480       1    3459    3456    3465    3483       1
    3459    3468   -3486    3474       1    3456    3459    3468    3486       1
    3456    3462   -3474    3486       1    3456    3462    3477    3495       1
    3456    3465   -3480    3495       1    3456    3465    3480    3501       1
    3456    3465    3483    3504       1    3645    3633    3642    3651       1
    3645    3654   -3660    3651       1    3642    3633    3645    3654       1
    3642    3651   -3660    3654       1    3636    3642    3633    3645       1
    3636    3642    3651    3660       1    3633    3642    3651    3660       1
    3633    3645   -3654    3660       1    3627    3609    3624    3633       1
    3627    3636   -3642    3633       1    3627    3636    3642    3651       1
    3624    3609    3627    3636       1    3624    3633   -3642    3636       1
    3624    3633    3642    3651       1    3624    3633    3645    3654       1
    3612    3624    3609    3627       1    3612    3624    3633    3642       1
    3612    3624    3633    3645       1    3609    3624    3633    3642       1
    3609    3624    3633    3645       1    3609    3627   -3636    3642       1
    3603    3588    3609    3624       1    3603    3588    3609    3627       1
    3591    3573    3588    3603       1    3591    3573    3588    3609       1
    3591    3612   -3624    3609       1    3591    3612    3624    3633       1
    3588    3573    3591    3612       1    3588    3609   -3624    3612       1
    3588    3609    3624    3633       1    3588    3609    3627    3636       1
    3585    3570    3582    3594       1    3585    3603    3588    3609       1
    3582    3570    3585    3603       1    3573    3564    3567    3576       1
    3573    3564    3570    3582       1    3573    3564    3570    3585       1
    3573    3588   -3603    3585       1    3573    3588    3609    3624       1
    3573    3588    3609    3627       1    3573    3591   -3612    3624       1
    3570    3564    3567    3576       1    3570    3564    3573    3588       1
    3570    3564    3573    3591       1    3570    3582   -3594    3576       1
    3570    3585   -3603    3588       1    3567    3564    3570    3582       1
    3567    3564    3570    3585       1    3567    3564    3573    3588       1
    3567    3564    3573    3591       1    3567    3576   -3594    3582       1
    3564    3567    3576    3594       1    3564    3570   -3582    3594       1
    3564    3570    3585    3603       1    3564    3573   -3588    3603       1
    3564    3573    3588    3609       1    3564    3573    3591    3612       1
    3753    3741    3750    3759       1    3753    3762   -3768    3759       1
    3750    3741    3753    3762       1    3750    3759   -3768    3762       1
    3744    3750    3741    3753       1    3744    3750    3759    3768       1
    3741    3750    3759    3768       1    3741    3753   -3762    3768       1
    3735    3717    3732    3741       1    3735    3744   -3750    3741       1
    3735    3744    3750    3759       1    3732    3717    3735    3744       1
    3732    3741   -3750    3744       1    3732    3741    3750    3759       1
    3732    3741    3753    3762       1    3720    3732    3717    3735       1
    3720    3732    3741    3750       1    3720    3732    3741    3753       1
    3717    3732    3741    3750       1    3717    3732    3741    3753       1
    3717    3735   -3744    3750       1    3711    3696    3717    3732       1
    3711    3696    3717    3735       1    3699    3681    3696    3711       1
    3699    3681    3696    3717       1    3699    3720   -3732    3717       1
    3699    3720    3732    3741       1    3696    3681    3699    3720       1
    3696    3717   -3732    3720       1    3696    3717    3732    3741       1
    3696    3717    3735    3744       1    3693    3678    3690    3702       1
    3693    3711    3696    3717       1    3690    3678    3693    3711       1
    3681    3672    3675    3684       1    3681    3672    3678    3690       1
    3681    3672    3678    3693       1    3681    3696   -3711    3693       1
    3681    3696    3717    3732       1    3681    3696    3717    3735       1
    3681    3699   -3720    3732       1    3678    3672    3675    3684       1
    3678    3672    3681    3696       1    3678    3672    3681    3699       1
    3678    3690   -3702    3684       1    3678    3693   -3711    3696       1
    3675    3672    3678    3690       1    3675    3672    3678    3693       1
    3675    3672    3681    3696       1    3675    3672    3681    3699       1
    3675    3684   -3702    3690       1    3672    3675    3684    3702       1
    3672    3678   -3690    3702       1    3672    3678    3693    3711       1
    3672    3681   -3696    3711       1    3672    3681    3696    3717       1
    3672    3681    3699    3720       1    3861    3849    3858    3867       1
    3861    3870   -3876    3867       1    3858    3849    3861    3870       1
    3858    3867   -3876    3870       1    3852    3858    3849    3861       1
    3852    3858    3867    3876       1    3849    3858    3867    3876       1
    3849    3861   -3870    3876       1    3843    3825    3840    3849       1
    3843    3852   -3858    3849       1    3843    3852    3858    3867       1
    3840    3825    3843    3852       1    3840    3849   -3858    3852       1
    3840    3849    3858    3867       1    3840    3849    3861    3870       1
    3828    3840    3825    3843       1    3828    3840    3849    3858       1
    3828    3840    3849    3861       1    3825    3840    3849    3858       1
    3825    3840    3849    3861       1    3825    3843   -3852    3858       1
    3819    3804    3825    3840       1    3819    3804    3825    3843       1
    3807    3789    3804    3819       1    3807    3789    3804    3825       1
    3807    3828   -3840    3825       1    3807    3828    3840    3849       1
    3804    3789    3807    3828       1    3804    3825   -3840    3828       1
    3804    3825    3840    3849       1    3804    3825    3843    3852       1
    3801    3786    3798    3810       1    3801    3819    3804    3825       1
    3798    3786    3801    3819       1    3789    3780    3783    3792       1
    3789    3780    3786    3798       1    3789    3780    3786    3801       1
    3789    3804   -3819    3801       1    3789    3804    3825    3840       1
    3789    3804    3825    3843       1    3789    3807   -3828    3840       1
    3786    3780    3783    3792       1    3786    3780    3789    3804       1
    3786    3780    3789    3807       1    3786    3798   -3810    3792       1
    3786    3801   -3819    3804       1    3783    3780    3786    3798       1
    3783    3780    3786    3801       1    3783    3780    3789    3804       1
    3783    3780    3789    3807       1    3783    3792   -3810    3798       1
    3780    3783    3792    3810       1    3780    3786   -3798    3810       1
    3780    3786    3801    3819       1    3780    3789   -3804    3819       1
    3780    3789    3804    3825       1    3780    3789    3807    3828       1
    3969    3957    3966    3975       1    3969    3978   -3984    3975       1
    3966    3957    3969    3978       1    3966    3975   -3984    3978       1
    3960    3966    3957    3969       1    3960    3966    3975    3984       1
    3957    3966    3975    3984       1    3957    3969   -3978    3984       1
    3951    3933    3948    3957       1    3951    3960   -3966    3957       1
    3951    3960    3966    3975       1    3948    3933    3951    3960       1
    3948    3957   -3966    3960       1    3948    3957    3966    3975       1
    3948    3957    3969    3978       1    3936    3948    3933    3951       1
    3936    3948    3957    3966       1    3936    3948    3957    3969       1
    3933    3948    3957    3966       1    3933    3948    3957    3969       1
    3933    3951   -3960    3966       1    3927    3912    3933    3948       1
    3927    3912    3933    3951       1    3915    3897    3912    3927       1
    3915    3897    3912    3933       1    3915    3936   -3948    3933       1
    3915    3936    3948    3957       1    3912    3897    3915    3936       1
    3912    3933   -3948    3936       1    3912    3933    3948    3957       1
    3912    3933    3951    3960       1    3909    3894    3906    3918       1
    3909    3927    3912    3933       1    3906    3894    3909    3927       1
    3897    3888    3891    3900       1    3897    3888    3894    3906       1
    3897    3888    3894    3909       1    3897    3912   -3927    3909       1
    3897    3912    3933    3948       1    3897    3912    3933    3951       1
    3897    3915   -3936    3948       1    3894    3888    3891    3900       1
    3894    3888    3897    3912       1    3894    3888    3897    3915       1
    3894    3906   -3918    3900       1    3894    3909   -3927    3912       1
    3891    3888    3894    3906       1    3891    3888    3894    3909       1
    3891    3888    3897    3912       1    3891    3888    3897    3915       1
    3891    3900   -3918    3906       1    3888    3891    3900    3918       1
    3888    3894   -3906    3918       1    3888    3894    3909    3927       1
    3888    3897   -3912    3927       1    3888    3897    3912    3933       1
    3888    3897    3915    3936       1    4077    4065    4074    4083       1
    4077    4086   -4092    4083       1    4074    4065    4077    4086       1
    4074    4083   -4092    4086       1    4068    4074    4065    4077       1
    4068    4074    4083    4092       1    4065    4074    4083    4092       1
    4065    4077   -4086    4092       1    4059    4041    4056    4065       1
    4059    4068   -4074    4065       1    4059    4068    4074    4083       1
    4056    4041    4059    4068       1    4056    4065   -4074    4068       1
    4056    4065    4074    4083       1    4056    4065    4077    4086       1
    4044    4056    4041    4059       1    4044    4056    4065    4074       1
    4044    4056    4065    4077       1    4041    4056    4065    4074       1
    4041    4056    4065    4077       1    4041    4059   -4068    4074       1
    4035    4020    4041    4056       1    4035    4020    4041    4059       1
    4023    4005    4020    4035       1    4023    4005    4020    4041       1
    4023    4044   -4056    4041       1    4023    4044    4056    4065       1
    4020    4005    4023    4044       1    4020    4041   -4056    4044       1
    4020    4041    4056    4065       1    4020    4041    4059    4068       1
    4017    4002    4014    4026       1    4017    4035    4020    4041       1
    4014    4002    4017    4035       1    4005    3996    3999    4008       1
    4005    3996    4002    4014       1    4005    3996    4002    4017       1
    4005    4020   -4035    4017       1    4005    4020    4041    4056       1
    4005    4020    4041    4059       1    4005    4023   -4044    4056       1
    4002    3996    3999    4008       1    4002    3996    4005    4020       1
    4002    3996    4005    4023       1    4002    4014   -4026    4008       1
    4002    4017   -4035    4020       1    3999    3996    4002    4014       1
    3999    3996    4002    4017       1    3999    3996    4005    4020       1
    3999    3996    4005    4023       1    3999    4008   -4026    4014       1
    3996    3999    4008    4026       1    3996    4002   -4014    4026       1
    3996    4002    4017    4035       1    3996    4005   -4020    4035       1
    3996    4005    4020    4041       1    3996    4005    4023    4044       1
    4185    4173    4182    4191       1    4185    4194   -4200    4191       1
    4182    4173    4185    4194       1    4182    4191   -4200    4194       1
    4176    4182    4173    4185       1    4176    4182    4191    4200       1
    4173    4182    4191    4200       1    4173    4185   -4194    4200       1
    4167    4149    4164    4173       1    4167    4176   -4182    4173       1
    4167    4176    4182    4191       1    4164    4149    4167    4176       1
    4164    4173   -4182    4176       1    4164    4173    4182    4191       1
    4164    4173    4185    4194       1    4152    4164    4149    4167       1
    4152    4164    4173    4182       1    4152    4164    4173    4185       1
    4149    4164    4173    4182       1    4149    4164    4173    4185       1
    4149    4167   -4176    4182       1    4143    4128    4149    4164       1
    4143    4128    4149    4167       1    4131    4113    4128    4143       1
    4131    4113    4128    4149       1    4131    4152   -4164    4149       1
    4131    4152    4164    4173       1    4128    4113    4131    4152       1
    4128    4149   -4164    4152       1    4128    4149    4164    4173       1
    4128    4149    4167    4176       1    4125    4110    4122    4134       1
    4125    4143    4128    4149       1    4122    4110    4125    4143       1
    4113    4104    4107    4116       1    4113    4104    4110    4122       1
    4113    4104    4110    4125       1    4113    4128   -4143    4125       1
    4113    4128    4149    4164       1    4113    4128    4149    4167       1
    4113    4131   -4152    4164       1    4110    4104    4107    4116       1
    4110    4104    4113    4128       1    4110    4104    4113    4131       1
    4110    4122   -4134    4116       1    4110    4125   -4143    4128       1
    4107    4104    4110    4122       1    4107    4104    4110    4125       1
    4107    4104    4113    4128       1    4107    4104    4113    4131       1
    4107    4116   -4134    4122       1    4104    4107    4116    4134       1
    4104    4110   -4122    4134       1    4104    4110    4125    4143       1
    4104    4113   -4128    4143       1    4104    4113    4128    4149       1
    4104    4113    4131    4152       1    4293    4281    4290    4299       1
    4293    4302   -4308    4299       1    4290    4281    4293    4302       1
    4290    4299   -4308    4302       1    4284    4290    4281    4293       1
    4284    4290    4299    4308       1    4281    4290    4299    4308       1
    4281    4293   -4302    4308       1    4275    4257    4272    4281       1
    4275    4284   -4290    4281       1    4275    4284    4290    4299       1
    4272    4257    4275    4284       1    4272    4281   -4290    4284       1
    4272    4281    4290    4299       1    4272    4281    4293    4302       1
    4260    4272    4257    4275       1    4260    4272    4281    4290       1
    4260    4272    4281    4293       1    4257    4272    4281    4290       1
    4257    4272    4281    4293       1    4257    4275   -4284    4290       1
    4251    4236    4257    4272       1    4251    4236    4257    4275       1
    4239    4221    4236    4251       1    4239    4221    4236    4257       1
    4239    4260   -4272    4257       1    4239    4260    4272    4281       1
    4236    4221    4239    4260       1    4236    4257   -4272    4260       1
    4236    4257    4272    4281       1    4236    4257    4275    4284       1
    4233    4218    4230    4242       1    4233    4251    4236    4257       1
    4230    4218    4233    4251       1    4221    4212    4215    4224       1
    4221    4212    4218    4230       1    4221    4212    4218    4233       1
    4221    4236   -4251    4233       1    4221    4236    4257    4272       1
    4221    4236    4257    4275       1    4221    4239   -4260    4272       1
    4218    4212    4215    4224       1    4218    4212    4221    4236       1
    4218    4212    4221    4239       1    4218    4230   -4242    4224       1
    4218    4233   -4251    4236       1    4215    4212    4218    4230       1
    4215    4212    4218    4233       1    4215    4212    4221    4236       1
    4215    4212    4221    4239       1    4215    4224   -4242    4230       1
    4212    4215    4224    4242       1    4212    4218   -4230    4242       1
    4212    4218    4233    4251       1    4212    4221   -4236    4251       1
    4212    4221    4236    4257       1    4212    4221    4239    4260       1
    4401    4389    4398    4407       1    4401    4410   -4416    4407       1
    4398    4389    4401    4410       1    4398    4407   -4416    4410       1
    4392    4398    4389    4401       1    4392    4398    4407    4416       1
    4389    4398    4407    4416       1    4389    4401   -4410    4416       1
    4383    4365    4380    4389       1    4383    4392   -4398    4389       1
    4383    4392    4398    4407       1    4380    4365    4383    4392       1
    4380    4389   -4398    4392       1    4380    4389    4398    4407       1
    4380    4389    4401    4410       1    4368    4380    4365    4383       1
    4368    4380    4389    4398       1    4368    4380    4389    4401       1
    4365    4380    4389    4398       1    4365    4380    4389    4401       1
    4365    4383   -4392    4398       1    4359    4344    4365    4380       1
    4359    4344    4365    4383       1    4347    4329    4344    4359       1
    4347    4329    4344    4365       1    4347    4368   -4380    4365       1
    4347    4368    4380    4389       1    4344    4329    4347    4368       1
    4344    4365   -4380    4368       1    4344    4365    4380    4389       1
    4344    4365    4383    4392       1    4341    4326    4338    4350       1
    4341    4359    4344    4365       1    4338    4326    4341    4359       1
    4329    4320    4323    4332       1    4329    4320    4326    4338       1
    4329    4320    4326    4341       1    4329    4344   -4359    4341       1
    4329    4344    4365    4380       1    4329    4344    4365    4383       1
    4329    4347   -4368    4380       1    4326    4320    4323    4332       1
    4326    4320    4329    4344       1    4326    4320    4329    4347       1
    4326    4338   -4350    4332       1    4326    4341   -4359    4344       1
    4323    4320    4326    4338       1    4323    4320    4326    4341       1
    4323    4320    4329    4344       1    4323    4320    4329    4347       1
    4323    4332   -4350    4338       1    4320    4323    4332    4350       1
    4320    4326   -4338    4350       1    4320    4326    4341    4359       1
    4320    4329   -4344    4359       1    4320    4329    4344    4365       1
    4320    4329    4347    4368       1    4509    4497    4506    4515       1
    4509    4518   -4524    4515       1    4506    4497    4509    4518       1
    4506    4515   -4524    4518       1    4500    4506    4497    4509       1
    4500    4506    4515    4524       1    4497    4506    4515    4524       1
    4497    4509   -4518    4524       1    4491    4473    4488    4497       1
    4491    4500   -4506    4497       1    4491    4500    4506    4515       1
    4488    4473    4491    4500       1    4488    4497   -4506    4500       1
    4488    4497    4506    4515       1    4488    4497    4509    4518       1
    4476    4488    4473    4491       1    4476    4488    4497    4506       1
    4476    4488    4497    4509       1    4473    4488    4497    4506       1
    4473    4488    4497    4509       1    4473    4491   -4500    4506       1
    4467    4452    4473    4488       1    4467    4452    4473    4491       1
    4455    4437    4452    4467       1    4455    4437    4452    4473       1
    4455    4476   -4488    4473       1    4455    4476    4488    4497       1
    4452    4437    4455    4476       1    4452    4473   -4488    4476       1
    4452    4473    4488    4497       1    4452    4473    4491    4500       1
    4449    4434    4446    4458       1    4449    4467    4452    4473       1
    4446    4434    4449    4467       1    4437    4428    4431    4440       1
    4437    4428    4434    4446       1    4437    4428    4434    4449       1
    4437    4452   -4467    4449       1    4437    4452    4473    4488       1
    4437    4452    4473    4491       1    4437    4455   -4476    4488       1
    4434    4428    4431    4440       1    4434    4428    4437    4452       1
    4434    4428    4437    4455       1    4434    4446   -4458    4440       1
    4434    4449   -4467    4452       1    4431    4428    4434    4446       1
    4431    4428    4434    4449       1    4431    4428    4437    4452       1
    4431    4428    4437    4455       1    4431    4440   -4458    4446       1
    4428    4431    4440    4458       1    4428    4434   -4446    4458       1
    4428    4434    4449    4467       1    4428    4437   -4452    4467       1
    4428    4437    4452    4473       1    4428    4437    4455    4476       1
    4617    4605    4614    4623       1    4617    4626   -4632    4623       1
    4614    4605    4617    4626       1    4614    4623   -4632    4626       1
    4608    4614    4605    4617       1    4608    4614    4623    4632       1
    4605    4614    4623    4632       1    4605    4617   -4626    4632       1
    4599    4581    4596    4605       1    4599    4608   -4614    4605       1
    4599    4608    4614    4623       1    4596    4581    4599    4608       1
    4596    4605   -4614    4608       1    4596    4605    4614    4623       1
    4596    4605    4617    4626       1    4584    4596    4581    4599       1
    4584    4596    4605    4614       1    4584    4596    4605    4617       1
    4581    4596    4605    4614       1    4581    4596    4605    4617       1
    4581    4599   -4608    4614       1    4575    4560    4581    4596       1
    4575    4560    4581    4599       1    4563    4545    4560    4575       1
    4563    4545    4560    4581       1    4563    4584   -4596    4581       1
    4563    4584    4596    4605       1    4560    4545    4563    4584       1
    4560    4581   -4596    4584       1    4560    4581    4596    4605       1
    4560    4581    4599    4608       1    4557    4542    4554    4566       1
    4557    4575    4560    4581       1    4554    4542    4557    4575       1
    4545    4536    4539    4548       1    4545    4536    4542    4554       1
    4545    4536    4542    4557       1    4545    4560   -4575    4557       1
    4545    4560    4581    4596       1    4545    4560    4581    4599       1
    4545    4563   -4584    4596       1    4542    4536    4539    4548       1
    4542    4536    4545    4560       1    4542    4536    4545    4563       1
    4542    4554   -4566    4548       1    4542    4557   -4575    4560       1
    4539    4536    4542    4554       1    4539    4536    4542    4557       1
    4539    4536    4545    4560       1    4539    4536    4545    4563       1
    4539    4548   -4566    4554       1    4536    4539    4548    4566       1
    4536    4542   -4554    4566       1    4536    4542    4557    4575       1
    4536    4545   -4560    4575       1    4536    4545    4560    4581       1
    4536    4545    4563    4584       1    4725    4713    4722    4731       1
    4725    4734   -4740    4731       1    4722    4713    4725    4734       1
    4722    4731   -4740    4734       1    4716    4722    4713    4725       1
    4716    4722    4731    4740       1    4713    4722    4731    4740       1
    4713    4725   -4734    4740       1    4707    4689    4704    4713       1
    4707    4716   -4722    4713       1    4707    4716    4722    4731       1
    4704    4689    4707    4716       1    4704    4713   -4722    4716       1
    4704    4713    4722    4731       1    4704    4713    4725    4734       1
    4692    4704    4689    4707       1    4692    4704    4713    4722       1
    4692    4704    4713    4725       1    4689    4704    4713    4722       1
    4689    4704    4713    4725       1    4689    4707   -4716    4722       1
    4683    4668    4689    4704       1    4683    4668    4689    4707       1
    4671    4653    4668    4683       1    4671    4653    4668    4689       1
    4671    4692   -4704    4689       1    4671    4692    4704    4713       1
    4668    4653    4671    4692       1    4668    4689   -4704    4692       1
    4668    4689    4704    4713       1    4668    4689    4707    4716       1
    4665    4650    4662    4674       1    4665    4683    4668    4689       1
    4662    4650    4665    4683       1    4653    4644    4647    4656       1
    4653    4644    4650    4662       1    4653    4644    4650    4665       1
    4653    4668   -4683    4665       1    4653    4668    4689    4704       1
    4653    4668    4689    4707       1    4653    4671   -4692    4704       1
    4650    4644    4647    4656       1    4650    4644    4653    4668       1
    4650    4644    4653    4671       1    4650    4662   -4674    4656       1
    4650    4665   -4683    4668       1    4647    4644    4650    4662       1
    4647    4644    4650    4665       1    4647    4644    4653    4668       1
    4647    4644    4653    4671       1    4647    4656   -4674    4662       1
    4644    4647    4656    4674       1    4644    4650   -4662    4674       1
    4644    4650    4665    4683       1    4644    4653   -4668    4683       1
    4644    4653    4668    4689       1    4644    4653    4671    4692       1
    4833    4821    4830    4839       1    4833    4842   -4848    4839       1
    4830    4821    4833    4842       1    4830    4839   -4848    4842       1
    4824    4830    4821    4833       1    4824    4830    4839    4848       1
    4821    4830    4839    4848       1    4821    4833   -4842    4848       1
    4815    4797    4812    4821       1    4815    4824   -4830    4821       1
    4815    4824    4830    4839       1    4812    4797    4815    4824       1
    4812    4821   -4830    4824       1    4812    4821    4830    4839       1
    4812    4821    4833    4842       1    4800    4812    4797    4815       1
    4800    4812    4821    4830       1    4800    4812    4821    4833       1
    4797    4812    4821    4830       1    4797    4812    4821    4833       1
    4797    4815   -4824    4830       1    4791    4776    4797    4812       1
    4791    4776    4797    4815       1    4779    4761    4776    4791       1
    4779    4761    4776    4797       1    4779    4800   -4812    4797       1
    4779    4800    4812    4821       1    4776    4761    4779    4800       1
    4776    4797   -4812    4800       1    4776    4797    4812    4821       1
    4776    4797    4815    4824       1    4773    4758    4770    4782       1
    4773    4791    4776    4797       1    4770    4758    4773    4791       1
    4761    4752    4755    4764       1    4761    4752    4758    4770       1
    4761    4752    4758    4773       1    4761    4776   -4791    4773       1
    4761    4776    4797    4812       1    4761    4776    4797    4815       1
    4761    4779   -4800    4812       1    4758    4752    4755    4764       1
    4758    4752    4761    4776       1    4758    4752    4761    4779       1
    4758    4770   -4782    4764       1    4758    4773   -4791    4776       1
    4755    4752    4758    4770       1    4755    4752    4758    4773       1
    4755    4752    4761    4776       1    4755    4752    4761    4779       1
    4755    4764   -4782    4770       1    4752    4755    4764    4782       1
    4752    4758   -4770    4782       1    4752    4758    4773    4791       1
    4752    4761   -4776    4791       1    4752    4761    4776    4797       1
    4752    4761    4779    4800       1    4941    4929    4938    4947       1
    4941    4950   -4956    4947       1    4938    4929    4941    4950       1
    4938    4947   -4956    4950       1    4932    4938    4929    4941       1
    4932    4938    4947    4956       1    4929    4938    4947    4956       1
    4929    4941   -4950    4956       1    4923    4905    4920    4929       1
    4923    4932   -4938    4929       1    4923    4932    4938    4947       1
    4920    4905    4923    4932       1    4920    4929   -4938    4932       1
    4920    4929    4938    4947       1    4920    4929    4941    4950       1
    4908    4920    4905    4923       1    4908    4920    4929    4938       1
    4908    4920    4929    4941       1    4905    4920    4929    4938       1
    4905    4920    4929    4941       1    4905    4923   -4932    4938       1
    4899    4884    4905    4920       1    4899    4884    4905    4923       1
    4887    4869    4884    4899       1    4887    4869    4884    4905       1
    4887    4908   -4920    4905       1    4887    4908    4920    4929       1
    4884    4869    4887    4908       1    4884    4905   -4920    4908       1
    4884    4905    4920    4929       1    4884    4905    4923    4932       1
    4881    4866    4878    4890       1    4881    4899    4884    4905       1
    4878    4866    4881    4899       1    4869    4860    4863    4872       1
    4869    4860    4866    4878       1    4869    4860    4866    4881       1
    4869    4884   -4899    4881       1    4869    4884    4905    4920       1
    4869    4884    4905    4923       1    4869    4887   -4908    4920       1
    4866    4860    4863    4872       1    4866    4860    4869    4884       1
    4866    4860    4869    4887       1    4866    4878   -4890    4872       1
    4866    4881   -4899    4884       1    4863    4860    4866    4878       1
    4863    4860    4866    4881       1    4863    4860    4869    4884       1
    4863    4860    4869    4887       1    4863    4872   -4890    4878       1
    4860    4863    4872    4890       1    4860    4866   -4878    4890       1
    4860    4866    4881    4899       1    4860    4869   -4884    4899       1
    4860    4869    4884    4905       1    4860    4869    4887    4908       1
    5049    5037    5046    5055       1    5049    5058   -5064    5055       1
    5046    5037    5049    5058       1    5046    5055   -5064    5058       1
    5040    5046    5037    5049       1    5040    5046    5055    5064       1
    5037    5046    5055    5064       1    5037    5049   -5058    5064       1
    5031    5013    5028    5037       1    5031    5040   -5046    5037       1
    5031    5040    5046    5055       1    5028    5013    5031    5040       1
    5028    5037   -5046    5040       1    5028    5037    5046    5055       1
    5028    5037    5049    5058       1    5016    5028    5013    5031       1
    5016    5028    5037    5046       1    5016    5028    5037    5049       1
    5013    5028    5037    5046       1    5013    5028    5037    5049       1
    5013    5031   -5040    5046       1    5007    4992    5013    5028       1
    5007    4992    5013    5031       1    4995    4977    4992    5007       1
    4995    4977    4992    5013       1    4995    5016   -5028    5013       1
    4995    5016    5028    5037       1    4992    4977    4995    5016       1
    4992    5013   -5028    5016       1    4992    5013    5028    5037       1
    4992    5013    5031    5040       1    4989    4974    4986    4998       1
    4989    5007    4992    5013       1    4986    4974    4989    5007       1
    4977    4968    4971    4980       1    4977    4968    4974    4986       1
    4977    4968    4974    4989       1    4977    4992   -5007    4989       1
    4977    4992    5013    5028       1    4977    4992    5013    5031       1
    4977    4995   -5016    5028       1    4974    4968    4971    4980       1
    4974    4968    4977    4992       1    4974    4968    4977    4995       1
    4974    4986   -4998    4980       1    4974    4989   -5007    4992       1
    4971    4968    4974    4986       1    4971    4968    4974    4989       1
    4971    4968    4977    4992       1    4971    4968    4977    4995       1
    4971    4980   -4998    4986       1    4968    4971    4980    4998       1
    4968    4974   -4986    4998       1    4968    4974    4989    5007       1
    4968    4977   -4992    5007       1    4968    4977    4992    5013       1
    4968    4977    4995    5016       1    5157    5145    5154    5163       1
    5157    5166   -5172    5163       1    5154    5145    5157    5166       1
    5154    5163   -5172    5166       1    5148    5154    5145    5157       1
    5148    5154    5163    5172       1    5145    5154    5163    5172       1
    5145    5157   -5166    5172       1    5139    5121    5136    5145       1
    5139    5148   -5154    5145       1    5139    5148    5154    5163       1
    5136    5121    5139    5148       1    5136    5145   -5154    5148       1
    5136    5145    5154    5163       1    5136    5145    5157    5166       1
    5124    5136    5121    5139       1    5124    5136    5145    5154       1
    5124    5136    5145    5157       1    5121    5136    5145    5154       1
    5121    5136    5145    5157       1    5121    5139   -5148    5154       1
    5115    5100    5121    5136       1    5115    5100    5121    5139       1
    5103    5085    5100    5115       1    5103    5085    5100    5121       1
    5103    5124   -5136    5121       1    5103    5124    5136    5145       1
    5100    5085    5103    5124       1    5100    5121   -5136    5124       1
    5100    5121    5136    5145       1    5100    5121    5139    5148       1
    5097    5082    5094    5106       1    5097    5115    5100    5121       1
    5094    5082    5097    5115       1    5085    5076    5079    5088       1
    5085    5076    5082    5094       1    5085    5076    5082    5097       1
    5085    5100   -5115    5097       1    5085    5100    5121    5136       1
    5085    5100    5121    5139       1    5085    5103   -5124    5136       1
    5082    5076    5079    5088       1    5082    5076    5085    5100       1
    5082    5076    5085    5103       1    5082    5094   -5106    5088       1
    5082    5097   -5115    5100       1    5079    5076    5082    5094       1
    5079    5076    5082    5097       1    5079    5076    5085    5100       1
    5079    5076    5085    5103       1    5079    5088   -5106    5094       1
    5076    5079    5088    5106       1    5076    5082   -5094    5106       1
    5076    5082    5097    5115       1    5076    5085   -5100    5115       1
    5076    5085    5100    5121       1    5076    5085    5103    5124       1
    5265    5253    5262    5271       1    5265    5274   -5280    5271       1
    5262    5253    5265    5274       1    5262    5271   -5280    5274       1
    5256    5262    5253    5265       1    5256    5262    5271    5280       1
    5253    5262    5271    5280       1    5253    5265   -5274    5280       1
    5247    5229    5244    5253       1    5247    5256   -5262    5253       1
    5247    5256    5262    5271       1    5244    5229    5247    5256       1
    5244    5253   -5262    5256       1    5244    5253    5262    5271       1
    5244    5253    5265    5274       1    5232    5244    5229    5247       1
    5232    5244    5253    5262       1    5232    5244    5253    5265       1
    5229    5244    5253    5262       1    5229    5244    5253    5265       1
    5229    5247   -5256    5262       1    5223    5208    5229    5244       1
    5223    5208    5229    5247       1    5211    5193    5208    5223       1
    5211    5193    5208    5229       1    5211    5232   -5244    5229       1
    5211    5232    5244    5253       1    5208    5193    5211    5232       1
    5208    5229   -5244    5232       1    5208    5229    5244    5253       1
    5208    5229    5247    5256       1    5205    5190    5202    5214       1
    5205    5223    5208    5229       1    5202    5190    5205    5223       1
    5193    5184    5187    5196       1    5193    5184    5190    5202       1
    5193    5184    5190    5205       1    5193    5208   -5223    5205       1
    5193    5208    5229    5244       1    5193    5208    5229    5247       1
    5193    5211   -5232    5244       1    5190    5184    5187    5196       1
    5190    5184    5193    5208       1    5190    5184    5193    5211       1
    5190    5202   -5214    5196       1    5190    5205   -5223    5208       1
    5187    5184    5190    5202       1    5187    5184    5190    5205       1
    5187    5184    5193    5208       1    5187    5184    5193    5211       1
    5187    5196   -5214    5202       1    5184    5187    5196    5214       1
    5184    5190   -5202    5214       1    5184    5190    5205    5223       1
    5184    5193   -5208    5223       1    5184    5193    5208    5229       1
    5184    5193    5211    5232       1    5373    5361    5370    5379       1
    5373    5382   -5388    5379       1    5370    5361    5373    5382       1
    5370    5379   -5388    5382       1    5364    5370    5361    5373       1
    5364    5370    5379    5388       1    5361    5370    5379    5388       1
    5361    5373   -5382    5388       1    5355    5337    5352    5361       1
    5355    5364   -5370    5361       1    5355    5364    5370    5379       1
    5352    5337    5355    5364       1    5352    5361   -5370    5364       1
    5352    5361    5370    5379       1    5352    5361    5373    5382       1
    5340    5352    5337    5355       1    5340    5352    5361    5370       1
    5340    5352    5361    5373       1    5337    5352    5361    5370       1
    5337    5352    5361    5373       1    5337    5355   -5364    5370       1
    5331    5316    5337    5352       1    5331    5316    5337    5355       1
    5319    5301    5316    5331       1    5319    5301    5316    5337       1
    5319    5340   -5352    5337       1    5319    5340    5352    5361       1
    5316    5301    5319    5340       1    5316    5337   -5352    5340       1
    5316    5337    5352    5361       1    5316    5337    5355    5364       1
    5313    5298    5310    5322       1    5313    5331    5316    5337       1
    5310    5298    5313    5331       1    5301    5292    5295    5304       1
    5301    5292    5298    5310       1    5301    5292    5298    5313       1
    5301    5316   -5331    5313       1    5301    5316    5337    5352       1
    5301    5316    5337    5355       1    5301    5319   -5340    5352       1
    5298    5292    5295    5304       1    5298    5292    5301    5316       1
    5298    5292    5301    5319       1    5298    5310   -5322    5304       1
    5298    5313   -5331    5316       1    5295    5292    5298    5310       1
    5295    5292    5298    5313       1    5295    5292    5301    5316       1
    5295    5292    5301    5319       1    5295    5304   -5322    5310       1
    5292    5295    5304    5322       1    5292    5298   -5310    5322       1
    5292    5298    5313    5331       1    5292    5301   -5316    5331       1
    5292    5301    5316    5337       1    5292    5301    5319    5340       1
    5481    5469    5478    5487       1    5481    5490   -5496    5487       1
    5478    5469    5481    5490       1    5478    5487   -5496    5490       1
    5472    5478    5469    5481       1    5472    5478    5487    5496       1
    5469    5478    5487    5496       1    5469    5481   -5490    5496       1
    5463    5445    5460    5469       1    5463    5472   -5478    5469       1
    5463    5472    5478    5487       1    5460    5445    5463    5472       1
    5460    5469   -5478    5472       1    5460    5469    5478    5487       1
    5460    5469    5481    5490       1    5448    5460    5445    5463       1
    5448    5460    5469    5478       1    5448    5460    5469    5481       1
    5445    5460    5469    5478       1    5445    5460    5469    5481       1
    5445    5463   -5472    5478       1    5439    5424    5445    5460       1
    5439    5424    5445    5463       1    5427    5409    5424    5439       1
    5427    5409    5424    5445       1    5427    5448   -5460    5445       1
    5427    5448    5460    5469       1    5424    5409    5427    5448       1
    5424    5445   -5460    5448       1    5424    5445    5460    5469       1
    5424    5445    5463    5472       1    5421    5406    5418    5430       1
    5421    5439    5424    5445       1    5418    5406    5421    5439       1
    5409    5400    5403    5412       1    5409    5400    5406    5418       1
    5409    5400    5406    5421       1    5409    5424   -5439    5421       1
    5409    5424    5445    5460       1    5409    5424    5445    5463       1
    5409    5427   -5448    5460       1    5406    5400    5403    5412       1
    5406    5400    5409    5424       1    5406    5400    5409    5427       1
    5406    5418   -5430    5412       1    5406    5421   -5439    5424       1
    5403    5400    5406    5418       1    5403    5400    5406    5421       1
    5403    5400    5409    5424       1    5403    5400    5409    5427       1
    5403    5412   -5430    5418       1    5400    5403    5412    5430       1
    5400    5406   -5418    5430       1    5400    5406    5421    5439       1
    5400    5409   -5424    5439       1    5400    5409    5424    5445       1
    5400    5409    5427    5448       1    5589    5577    5586    5595       1
    5589    5598   -5604    5595       1    5586    5577    5589    5598       1
    5586    5595   -5604    5598       1    5580    5586    5577    5589       1
    5580    5586    5595    5604       1    5577    5586    5595    5604       1
    5577    5589   -5598    5604       1    5571    5553    5568    5577       1
    5571    5580   -5586    5577       1    5571    5580    5586    5595       1
    5568    5553    5571    5580       1    5568    5577   -5586    5580       1
    5568    5577    5586    5595       1    5568    5577    5589    5598       1
    5556    5568    5553    5571       1    5556    5568    5577    5586       1
    5556    5568    5577    5589       1    5553    5568    5577    5586       1
    5553    5568    5577    5589       1    5553    5571   -5580    5586       1
    5547    5532    5553    5568       1    5547    5532    5553    5571       1
    5535    5517    5532    5547       1    5535    5517    5532    5553       1
    5535    5556   -5568    5553       1    5535    5556    5568    5577       1
    5532    5517    5535    5556       1    5532    5553   -5568    5556       1
    5532    5553    5568    5577       1    5532    5553    5571    5580       1
    5529    5514    5526    5538       1    5529    5547    5532    5553       1
    5526    5514    5529    5547       1    5517    5508    5511    5520       1
    5517    5508    5514    5526       1    5517    5508    5514    5529       1
    5517    5532   -5547    5529       1    5517    5532    5553    5568       1
    5517    5532    5553    5571       1    5517    5535   -5556    5568       1
    5514    5508    5511    5520       1    5514    5508    5517    5532       1
    5514    5508    5517    5535       1    5514    5526   -5538    5520       1
    5514    5529   -5547    5532       1    5511    5508    5514    5526       1
    5511    5508    5514    5529       1    5511    5508    5517    5532       1
    5511    5508    5517    5535       1    5511    5520   -5538    5526       1
    5508    5511    5520    5538       1    5508    5514   -5526    5538       1
    5508    5514    5529    5547       1    5508    5517   -5532    5547       1
    5508    5517    5532    5553       1    5508    5517    5535    5556       1
    5697    5685    5694    5703       1    5697    5706   -5712    5703       1
    5694    5685    5697    5706       1    5694    5703   -5712    5706       1
    5688    5694    5685    5697       1    5688    5694    5703    5712       1
    5685    5694    5703    5712       1    5685    5697   -5706    5712       1
    5679    5661    5676    5685       1    5679    5688   -5694    5685       1
    5679    5688    5694    5703       1    5676    5661    5679    5688       1
    5676    5685   -5694    5688       1    5676    5685    5694    5703       1
    5676    5685    5697    5706       1    5664    5676    5661    5679       1
    5664    5676    5685    5694       1    5664    5676    5685    5697       1
    5661    5676    5685    5694       1    5661    5676    5685    5697       1
    5661    5679   -5688    5694       1    5655    5640    5661    5676       1
    5655    5640    5661    5679       1    5643    5625    5640    5655       1
    5643    5625    5640    5661       1    5643    5664   -5676    5661       1
    5643    5664    5676    5685       1    5640    5625    5643    5664       1
    5640    5661   -5676    5664       1    5640    5661    5676    5685       1
    5640    5661    5679    5688       1    5637    5622    5634    5646       1
    5637    5655    5640    5661       1    5634    5622    5637    5655       1
    5625    5616    5619    5628       1    5625    5616    5622    5634       1
    5625    5616    5622    5637       1    5625    5640   -5655    5637       1
    5625    5640    5661    5676       1    5625    5640    5661    5679       1
    5625    5643   -5664    5676       1    5622    5616    5619    5628       1
    5622    5616    5625    5640       1    5622    5616    5625    5643       1
    5622    5634   -5646    5628       1    5622    5637   -5655    5640       1
    5619    5616    5622    5634       1    5619    5616    5622    5637       1
    5619    5616    5625    5640       1    5619    5616    5625    5643       1
    5619    5628   -5646    5634       1    5616    5619    5628    5646       1
    5616    5622   -5634    5646       1    5616    5622    5637    5655       1
    5616    5625   -5640    5655       1    5616    5625    5640    5661       1
    5616    5625    5643    5664       1    5805    5793    5802    5811       1
    5805    5814   -5820    5811       1    5802    5793    5805    5814       1
    5802    5811   -5820    5814       1    5796    5802    5793    5805       1
    5796    5802    5811    5820       1    5793    5802    5811    5820       1
    5793    5805   -5814    5820       1    5787    5769    5784    5793       1
    5787    5796   -5802    5793       1    5787    5796    5802    5811       1
    5784    5769    5787    5796       1    5784    5793   -5802    5796       1
    5784    5793    5802    5811       1    5784    5793    5805    5814       1
    5772    5784    5769    5787       1    5772    5784    5793    5802       1
    5772    5784    5793    5805       1    5769    5784    5793    5802       1
    5769    5784    5793    5805       1    5769    5787   -5796    5802       1
    5763    5748    5769    5784       1    5763    5748    5769    5787       1
    5751    5733    5748    5763       1    5751    5733    5748    5769       1
    5751    5772   -5784    5769       1    5751    5772    5784    5793       1
    5748    5733    5751    5772       1    5748    5769   -5784    5772       1
    5748    5769    5784    5793       1    5748    5769    5787    5796       1
    5745    5730    5742    5754       1    5745    5763    5748    5769       1
    5742    5730    5745    5763       1    5733    5724    5727    5736       1
    5733    5724    5730    5742       1    5733    5724    5730    5745       1
    5733    5748   -5763    5745       1    5733    5748    5769    5784       1
    5733    5748    5769    5787       1    5733    5751   -5772    5784       1
    5730    5724    5727    5736       1    5730    5724    5733    5748       1
    5730    5724    5733    5751       1    5730    5742   -5754    5736       1
    5730    5745   -5763    5748       1    5727    5724    5730    5742       1
    5727    5724    5730    5745       1    5727    5724    5733    5748       1
    5727    5724    5733    5751       1    5727    5736   -5754    5742       1
    5724    5727    5736    5754       1    5724    5730   -5742    5754       1
    5724    5730    5745    5763       1    5724    5733   -5748    5763       1
    5724    5733    5748    5769       1    5724    5733    5751    5772       1
    5913    5901    5910    5919       1    5913    5922   -5928    5919       1
    5910    5901    5913    5922       1    5910    5919   -5928    5922       1
    5904    5910    5901    5913       1    5904    5910    5919    5928       1
    5901    5910    5919    5928       1    5901    5913   -5922    5928       1
    5895    5877    5892    5901       1    5895    5904   -5910    5901       1
    5895    5904    5910    5919       1    5892    5877    5895    5904       1
    5892    5901   -5910    5904       1    5892    5901    5910    5919       1
    5892    5901    5913    5922       1    5880    5892    5877    5895       1
    5880    5892    5901    5910       1    5880    5892    5901    5913       1
    5877    5892    5901    5910       1    5877    5892    5901    5913       1
    5877    5895   -5904    5910       1    5871    5856    5877    5892       1
    5871    5856    5877    5895       1    5859    5841    5856    5871       1
    5859    5841    5856    5877       1    5859    5880   -5892    5877       1
    5859    5880    5892    5901       1    5856    5841    5859    5880       1
    5856    5877   -5892    5880       1    5856    5877    5892    5901       1
    5856    5877    5895    5904       1    5853    5838    5850    5862       1
    5853    5871    5856    5877       1    5850    5838    5853    5871       1
    5841    5832    5835    5844       1    5841    5832    5838    5850       1
    5841    5832    5838    5853       1    5841    5856   -5871    5853       1
    5841    5856    5877    5892       1    5841    5856    5877    5895       1
    5841    5859   -5880    5892       1    5838    5832    5835    5844       1
    5838    5832    5841    5856       1    5838    5832    5841    5859       1
    5838    5850   -5862    5844       1    5838    5853   -5871    5856       1
    5835    5832    5838    5850       1    5835    5832    5838    5853       1
    5835    5832    5841    5856       1    5835    5832    5841    5859       1
    5835    5844   -5862    5850       1    5832    5835    5844    5862       1
    5832    5838   -5850    5862       1    5832    5838    5853    5871       1
    5832    5841   -5856    5871       1    5832    5841    5856    5877       1
    5832    5841    5859    5880       1    6021    6009    6018    6027       1
    6021    6030   -6036    6027       1    6018    6009    6021    6030       1
    6018    6027   -6036    6030       1    6012    6018    6009    6021       1
    6012    6018    6027    6036       1    6009    6018    6027    6036       1
    6009    6021   -6030    6036       1    6003    5985    6000    6009       1
    6003    6012   -6018    6009       1    6003    6012    6018    6027       1
    6000    5985    6003    6012       1    6000    6009   -6018    6012       1
    6000    6009    6018    6027       1    6000    6009    6021    6030       1
    5988    6000    5985    6003       1    5988    6000    6009    6018       1
    5988    6000    6009    6021       1    5985    6000    6009    6018       1
    5985    6000    6009    6021       1    5985    6003   -6012    6018       1
    5979    5964    5985    6000       1    5979    5964    5985    6003       1
    5967    5949    5964    5979       1    5967    5949    5964    5985       1
    5967    5988   -6000    5985       1    5967    5988    6000    6009       1
    5964    5949    5967    5988       1    5964    5985   -6000    5988       1
    5964    5985    6000    6009       1    5964    5985    6003    6012       1
    5961    5946    5958    5970       1    5961    5979    5964    5985       1
    5958    5946    5961    5979       1    5949    5940    5943    5952       1
    5949    5940    5946    5958       1    5949    5940    5946    5961       1
    5949    5964   -5979    5961       1    5949    5964    5985    6000       1
    5949    5964    5985    6003       1    5949    5967   -5988    6000       1
    5946    5940    5943    5952       1    5946    5940    5949    5964       1
    5946    5940    5949    5967       1    5946    5958   -5970    5952       1
    5946    5961   -5979    5964       1    5943    5940    5946    5958       1
    5943    5940    5946    5961       1    5943    5940    5949    5964       1
    5943    5940    5949    5967       1    5943    5952   -5970    5958       1
    5940    5943    5952    5970       1    5940    5946   -5958    5970       1
    5940    5946    5961    5979       1    5940    5949   -5964    5979       1
    5940    5949    5964    5985       1    5940    5949    5967    5988       1
    6129    6117    6126    6135       1    6129    6138   -6144    6135       1
    6126    6117    6129    6138       1    6126    6135   -6144    6138       1
    6120    6126    6117    6129       1    6120    6126    6135    6144       1
    6117    6126    6135    6144       1    6117    6129   -6138    6144       1
    6111    6093    6108    6117       1    6111    6120   -6126    6117       1
    6111    6120    6126    6135       1    6108    6093    6111    6120       1
    6108    6117   -6126    6120       1    6108    6117    6126    6135       1
    6108    6117    6129    6138       1    6096    6108    6093    6111       1
    6096    6108    6117    6126       1    6096    6108    6117    6129       1
    6093    6108    6117    6126       1    6093    6108    6117    6129       1
    6093    6111   -6120    6126       1    6087    6072    6093    6108       1
    6087    6072    6093    6111       1    6075    6057    6072    6087       1
    6075    6057    6072    6093       1    6075    6096   -6108    6093       1
    6075    6096    6108    6117       1    6072    6057    6075    6096       1
    6072    6093   -6108    6096       1    6072    6093    6108    6117       1
    6072    6093    6111    6120       1    6069    6054    6066    6078       1
    6069    6087    6072    6093       1    6066    6054    6069    6087       1
    6057    6048    6051    6060       1    6057    6048    6054    6066       1
    6057    6048    6054    6069       1    6057    6072   -6087    6069       1
    6057    6072    6093    6108       1    6057    6072    6093    6111       1
    6057    6075   -6096    6108       1    6054    6048    6051    6060       1
    6054    6048    6057    6072       1    6054    6048    6057    6075       1
    6054    6066   -6078    6060       1    6054    6069   -6087    6072       1
    6051    6048    6054    6066       1    6051    6048    6054    6069       1
    6051    6048    6057    6072       1    6051    6048    6057    6075       1
    6051    6060   -6078    6066       1    6048    6051    6060    6078       1
    6048    6054   -6066    6078       1    6048    6054    6069    6087       1
    6048    6057   -6072    6087       1    6048    6057    6072    6093       1
    6048    6057    6075    6096       1    6237    6225    6234    6243       1
    6237    6246   -6252    6243       1    6234    6225    6237    6246       1
    6234    6243   -6252    6246       1    6228    6234    6225    6237       1
    6228    6234    6243    6252       1    6225    6234    6243    6252       1
    6225    6237   -6246    6252       1    6219    6201    6216    6225       1
    6219    6228   -6234    6225       1    6219    6228    6234    6243       1
    6216    6201    6219    6228       1    6216    6225   -6234    6228       1
    6216    6225    6234    6243       1    6216    6225    6237    6246       1
    6204    6216    6201    6219       1    6204    6216    6225    6234       1
    6204    6216    6225    6237       1    6201    6216    6225    6234       1
    6201    6216    6225    6237       1    6201    6219   -6228    6234       1
    6195    6180    6201    6216       1    6195    6180    6201    6219       1
    6183    6165    6180    6195       1    6183    6165    6180    6201       1
    6183    6204   -6216    6201       1    6183    6204    6216    6225       1
    6180    6165    6183    6204       1    6180    6201   -6216    6204       1
    6180    6201    6216    6225       1    6180    6201    6219    6228       1
    6177    6162    6174    6186       1    6177    6195    6180    6201       1
    6174    6162    6177    6195       1    6165    6156    6159    6168       1
    6165    6156    6162    6174       1    6165    6156    6162    6177       1
    6165    6180   -6195    6177       1    6165    6180    6201    6216       1
    6165    6180    6201    6219       1    6165    6183   -6204    6216       1
    6162    6156    6159    6168       1    6162    6156    6165    6180       1
    6162    6156    6165    6183       1    6162    6174   -6186    6168       1
    6162    6177   -6195    6180       1    6159    6156    6162    6174       1
    6159    6156    6162    6177       1    6159    6156    6165    6180       1
    6159    6156    6165    6183       1    6159    6168   -6186    6174       1
    6156    6159    6168    6186       1    6156    6162   -6174    6186       1
    6156    6162    6177    6195       1    6156    6165   -6180    6195       1
    6156    6165    6180    6201       1    6156    6165    6183    6204       1
    6345    6333    6342    6351       1    6345    6354   -6360    6351       1
    6342    6333    6345    6354       1    6342    6351   -6360    6354       1
    6336    6342    6333    6345       1    6336    6342    6351    6360       1
    6333    6342    6351    6360       1    6333    6345   -6354    6360       1
    6327    6309    6324    6333       1    6327    6336   -6342    6333       1
    6327    6336    6342    6351       1    6324    6309    6327    6336       1
    6324    6333   -6342    6336       1    6324    6333    6342    6351       1
    6324    6333    6345    6354       1    6312    6324    6309    6327       1
    6312    6324    6333    6342       1    6312    6324    6333    6345       1
    6309    6324    6333    6342       1    6309    6324    6333    6345       1
    6309    6327   -6336    6342       1    6303    6288    6309    6324       1
    6303    6288    6309    6327       1    6291    6273    6288    6303       1
    6291    6273    6288    6309       1    6291    6312   -6324    6309       1
    6291    6312    6324    6333       1    6288    6273    6291    6312       1
    6288    6309   -6324    6312       1    6288    6309    6324    6333       1
    6288    6309    6327    6336       1    6285    6270    6282    6294       1
    6285    6303    6288    6309       1    6282    6270    6285    6303       1
    6273    6264    6267    6276       1    6273    6264    6270    6282       1
    6273    6264    6270    6285       1    6273    6288   -6303    6285       1
    6273    6288    6309    6324       1    6273    6288    6309    6327       1
    6273    6291   -6312    6324       1    6270    6264    6267    6276       1
    6270    6264    6273    6288       1    6270    6264    6273    6291       1
    6270    6282   -6294    6276       1    6270    6285   -6303    6288       1
    6267    6264    6270    6282       1    6267    6264    6270    6285       1
    6267    6264    6273    6288       1    6267    6264    6273    6291       1
    6267    6276   -6294    6282       1    6264    6267    6276    6294       1
    6264    6270   -6282    6294       1    6264    6270    6285    6303       1
    6264    6273   -6288    6303       1    6264    6273    6288    6309       1
    6264    6273    6291    6312       1    6453    6441    6450    6459       1
    6453    6462   -6468    6459       1    6450    6441    6453    6462       1
    6450    6459   -6468    6462       1    6444    6450    6441    6453       1
    6444    6450    6459    6468       1    6441    6450    6459    6468       1
    6441    6453   -6462    6468       1    6435    6417    6432    6441       1
    6435    6444   -6450    6441       1    6435    6444    6450    6459       1
    6432    6417    6435    6444       1    6432    6441   -6450    6444       1
    6432    6441    6450    6459       1    6432    6441    6453    6462       1
    6420    6432    6417    6435       1    6420    6432    6441    6450       1
    6420    6432    6441    6453       1    6417    6432    6441    6450       1
    6417    6432    6441    6453       1    6417    6435   -6444    6450       1
    6411    6396    6417    6432       1    6411    6396    6417    6435       1
    6399    6381    6396    6411       1    6399    6381    6396    6417       1
    6399    6420   -6432    6417       1    6399    6420    6432    6441       1
    6396    6381    6399    6420       1    6396    6417   -6432    6420       1
    6396    6417    6432    6441       1    6396    6417    6435    6444       1
    6393    6378    6390    6402       1    6393    6411    6396    6417       1
    6390    6378    6393    6411       1    6381    6372    6375    6384       1
    6381    6372    6378    6390       1    6381    6372    6378    6393       1
    6381    6396   -6411    6393       1    6381    6396    6417    6432       1
    6381    6396    6417    6435       1    6381    6399   -6420    6432       1
    6378    6372    6375    6384       1    6378    6372    6381    6396       1
    6378    6372    6381    6399       1    6378    6390   -6402    6384       1
    6378    6393   -6411    6396       1    6375    6372    6378    6390       1
    6375    6372    6378    6393       1    6375    6372    6381    6396       1
    6375    6372    6381    6399       1    6375    6384   -6402    6390       1
    6372    6375    6384    6402       1    6372    6378   -6390    6402       1
    6372    6378    6393    6411       1    6372    6381   -6396    6411       1
    6372    6381    6396    6417       1    6372    6381    6399    6420       1
    6561    6549    6558    6567       1    6561    6570   -6576    6567       1
    6558    6549    6561    6570       1    6558    6567   -6576    6570       1
    6552    6558    6549    6561       1    6552    6558    6567    6576       1
    6549    6558    6567    6576       1    6549    6561   -6570    6576       1
    6543    6525    6540    6549       1    6543    6552   -6558    6549       1
    6543    6552    6558    6567       1    6540    6525    6543    6552       1
    6540    6549   -6558    6552       1    6540    6549    6558    6567       1
    6540    6549    6561    6570       1    6528    6540    6525    6543       1
    6528    6540    6549    6558       1    6528    6540    6549    6561       1
    6525    6540    6549    6558       1    6525    6540    6549    6561       1
    6525    6543   -6552    6558       1    6519    6504    6525    6540       1
    6519    6504    6525    6543       1    6507    6489    6504    6519       1
    6507    6489    6504    6525       1    6507    6528   -6540    6525       1
    6507    6528    6540    6549       1    6504    6489    6507    6528       1
    6504    6525   -6540    6528       1    6504    6525    6540    6549       1
    6504    6525    6543    6552       1    6501    6486    6498    6510       1
    6501    6519    6504    6525       1    6498    6486    6501    6519       1
    6489    6480    6483    6492       1    6489    6480    6486    6498       1
    6489    6480    6486    6501       1    6489    6504   -6519    6501       1
    6489    6504    6525    6540       1    6489    6504    6525    6543       1
    6489    6507   -6528    6540       1    6486    6480    6483    6492       1
    6486    6480    6489    6504       1    6486    6480    6489    6507       1
    6486    6498   -6510    6492       1    6486    6501   -6519    6504       1
    6483    6480    6486    6498       1    6483    6480    6486    6501       1
    6483    6480    6489    6504       1    6483    6480    6489    6507       1
    6483    6492   -6510    6498       1    6480    6483    6492    6510       1
    6480    6486   -6498    6510       1    6480    6486    6501    6519       1
    6480    6489   -6504    6519       1    6480    6489    6504    6525       1
    6480    6489    6507    6528       1    6669    6657    6666    6675       1
    6669    6678   -6684    6675       1    6666    6657    6669    6678       1
    6666    6675   -6684    6678       1    6660    6666    6657    6669       1
    6660    6666    6675    6684       1    6657    6666    6675    6684       1
    6657    6669   -6678    6684       1    6651    6633    6648    6657       1
    6651    6660   -6666    6657       1    6651    6660    6666    6675       1
    6648    6633    6651    6660       1    6648    6657   -6666    6660       1
    6648    6657    6666    6675       1    6648    6657    6669    6678       1
    6636    6648    6633    6651       1    6636    6648    6657    6666       1
    6636    6648    6657    6669       1    6633    6648    6657    6666       1
    6633    6648    6657    6669       1    6633    6651   -6660    6666       1
    6627    6612    6633    6648       1    6627    6612    6633    6651       1
    6615    6597    6612    6627       1    6615    6597    6612    6633       1
    6615    6636   -6648    6633       1    6615    6636    6648    6657       1
    6612    6597    6615    6636       1    6612    6633   -6648    6636       1
    6612    6633    6648    6657       1    6612    6633    6651    6660       1
    6609    6594    6606    6618       1    6609    6627    6612    6633       1
    6606    6594    6609    6627       1    6597    6588    6591    6600       1
    6597    6588    6594    6606       1    6597    6588    6594    6609       1
    6597    6612   -6627    6609       1    6597    6612    6633    6648       1
    6597    6612    6633    6651       1    6597    6615   -6636    6648       1
    6594    6588    6591    6600       1    6594    6588    6597    6612       1
    6594    6588    6597    6615       1    6594    6606   -6618    6600       1
    6594    6609   -6627    6612       1    6591    6588    6594    6606       1
    6591    6588    6594    6609       1    6591    6588    6597    6612       1
    6591    6588    6597    6615       1    6591    6600   -6618    6606       1
    6588    6591    6600    6618       1    6588    6594   -6606    6618       1
    6588    6594    6609    6627       1    6588    6597   -6612    6627       1
    6588    6597    6612    6633       1    6588    6597    6615    6636       1
    6777    6765    6774    6783       1    6777    6786   -6792    6783       1
    6774    6765    6777    6786       1    6774    6783   -6792    6786       1
    6768    6774    6765    6777       1    6768    6774    6783    6792       1
    6765    6774    6783    6792       1    6765    6777   -6786    6792       1
    6759    6741    6756    6765       1    6759    6768   -6774    6765       1
    6759    6768    6774    6783       1    6756    6741    6759    6768       1
    6756    6765   -6774    6768       1    6756    6765    6774    6783       1
    6756    6765    6777    6786       1    6744    6756    6741    6759       1
    6744    6756    6765    6774       1    6744    6756    6765    6777       1
    6741    6756    6765    6774       1    6741    6756    6765    6777       1
    6741    6759   -6768    6774       1    6735    6720    6741    6756       1
    6735    6720    6741    6759       1    6723    6705    6720    6735       1
    6723    6705    6720    6741       1    6723    6744   -6756    6741       1
    6723    6744    6756    6765       1    6720    6705    6723    6744       1
    6720    6741   -6756    6744       1    6720    6741    6756    6765       1
    6720    6741    6759    6768       1    6717    6702    6714    6726       1
    6717    6735    6720    6741       1    6714    6702    6717    6735       1
    6705    6696    6699    6708       1    6705    6696    6702    6714       1
    6705    6696    6702    6717       1    6705    6720   -6735    6717       1
    6705    6720    6741    6756       1    6705    6720    6741    6759       1
    6705    6723   -6744    6756       1    6702    6696    6699    6708       1
    6702    6696    6705    6720       1    6702    6696    6705    6723       1
    6702    6714   -6726    6708       1    6702    6717   -6735    6720       1
    6699    6696    6702    6714       1    6699    6696    6702    6717       1
    6699    6696    6705    6720       1    6699    6696    6705    6723       1
    6699    6708   -6726    6714       1    6696    6699    6708    6726       1
    6696    6702   -6714    6726       1    6696    6702    6717    6735       1
    6696    6705   -6720    6735       1    6696    6705    6720    6741       1
    6696    6705    6723    6744       1    6885    6873    6882    6891       1
    6885    6894   -6900    6891       1    6882    6873    6885    6894       1
    6882    6891   -6900    6894       1    6876    6882    6873    6885       1
    6876    6882    6891    6900       1    6873    6882    6891    6900       1
    6873    6885   -6894    6900       1    6867    6849    6864    6873       1
    6867    6876   -6882    6873       1    6867    6876    6882    6891       1
    6864    6849    6867    6876       1    6864    6873   -6882    6876       1
    6864    6873    6882    6891       1    6864    6873    6885    6894       1
    6852    6864    6849    6867       1    6852    6864    6873    6882       1
    6852    6864    6873    6885       1    6849    6864    6873    6882       1
    6849    6864    6873    6885       1    6849    6867   -6876    6882       1
    6843    6828    6849    6864       1    6843    6828    6849    6867       1
    6831    6813    6828    6843       1    6831    6813    6828    6849       1
    6831    6852   -6864    6849       1    6831    6852    6864    6873       1
    6828    6813    6831    6852       1    6828    6849   -6864    6852       1
    6828    6849    6864    6873       1    6828    6849    6867    6876       1
    6825    6810    6822    6834       1    6825    6843    6828    6849       1
    6822    6810    6825    6843       1    6813    6804    6807    6816       1
    6813    6804    6810    6822       1    6813    6804    6810    6825       1
    6813    6828   -6843    6825       1    6813    6828    6849    6864       1
    6813    6828    6849    6867       1    6813    6831   -6852    6864       1
    6810    6804    6807    6816       1    6810    6804    6813    6828       1
    6810    6804    6813    6831       1    6810    6822   -6834    6816       1
    6810    6825   -6843    6828       1    6807    6804    6810    6822       1
    6807    6804    6810    6825       1    6807    6804    6813    6828       1
    6807    6804    6813    6831       1    6807    6816   -6834    6822       1
    6804    6807    6816    6834       1    6804    6810   -6822    6834       1
    6804    6810    6825    6843       1    6804    6813   -6828    6843       1
    6804    6813    6828    6849       1    6804    6813    6831    6852       1
    6993    6981    6990    6999       1    6993    7002   -7008    6999       1
    6990    6981    6993    7002       1    6990    6999   -7008    7002       1
    6984    6990    6981    6993       1    6984    6990    6999    7008       1
    6981    6990    6999    7008       1    6981    6993   -7002    7008       1
    6975    6957    6972    6981       1    6975    6984   -6990    6981       1
    6975    6984    6990    6999       1    6972    6957    6975    6984       1
    6972    6981   -6990    6984       1    6972    6981    6990    6999       1
    6972    6981    6993    7002       1    6960    6972    6957    6975       1
    6960    6972    6981    6990       1    6960    6972    6981    6993       1
    6957    6972    6981    6990       1    6957    6972    6981    6993       1
    6957    6975   -6984    6990       1    6951    6936    6957    6972       1
    6951    6936    6957    6975       1    6939    6921    6936    6951       1
    6939    6921    6936    6957       1    6939    6960   -6972    6957       1
    6939    6960    6972    6981       1    6936    6921    6939    6960       1
    6936    6957   -6972    6960       1    6936    6957    6972    6981       1
    6936    6957    6975    6984       1    6933    6918    6930    6942       1
    6933    6951    6936    6957       1    6930    6918    6933    6951       1
    6921    6912    6915    6924       1    6921    6912    6918    6930       1
    6921    6912    6918    6933       1    6921    6936   -6951    6933       1
    6921    6936    6957    6972       1    6921    6936    6957    6975       1
    6921    6939   -6960    6972       1    6918    6912    6915    6924       1
    6918    6912    6921    6936       1    6918    6912    6921    6939       1
    6918    6930   -6942    6924       1    6918    6933   -6951    6936       1
    6915    6912    6918    6930       1    6915    6912    6918    6933       1
    6915    6912    6921    6936       1    6915    6912    6921    6939       1
    6915    6924   -6942    6930       1    6912    6915    6924    6942       1
    6912    6918   -6930    6942       1    6912    6918    6933    6951       1
    6912    6921   -6936    6951       1    6912    6921    6936    6957       1
    6912    6921    6939    6960       1    7101    7089    7098    7107       1
    7101    7110   -7116    7107       1    7098    7089    7101    7110       1
    7098    7107   -7116    7110       1    7092    7098    7089    7101       1
    7092    7098    7107    7116       1    7089    7098    7107    7116       1
    7089    7101   -7110    7116       1    7083    7065    7080    7089       1
    7083    7092   -7098    7089       1    7083    7092    7098    7107       1
    7080    7065    7083    7092       1    7080    7089   -7098    7092       1
    7080    7089    7098    7107       1    7080    7089    7101    7110       1
    7068    7080    7065    7083       1    7068    7080    7089    7098       1
    7068    7080    7089    7101       1    7065    7080    7089    7098       1
    7065    7080    7089    7101       1    7065    7083   -7092    7098       1
    7059    7044    7065    7080       1    7059    7044    7065    7083       1
    7047    7029    7044    7059       1    7047    7029    7044    7065       1
    7047    7068   -7080    7065       1    7047    7068    7080    7089       1
    7044    7029    7047    7068       1    7044    7065   -7080    7068       1
    7044    7065    7080    7089       1    7044    7065    7083    7092       1
    7041    7026    7038    7050       1    7041    7059    7044    7065       1
    7038    7026    7041    7059       1    7029    7020    7023    7032       1
    7029    7020    7026    7038       1    7029    7020    7026    7041       1
    7029    7044   -7059    7041       1    7029    7044    7065    7080       1
    7029    7044    7065    7083       1    7029    7047   -7068    7080       1
    7026    7020    7023    7032       1    7026    7020    7029    7044       1
    7026    7020    7029    7047       1    7026    7038   -7050    7032       1
    7026    7041   -7059    7044       1    7023    7020    7026    7038       1
    7023    7020    7026    7041       1    7023    7020    7029    7044       1
    7023    7020    7029    7047       1    7023    7032   -7050    7038       1
    7020    7023    7032    7050       1    7020    7026   -7038    7050       1
    7020    7026    7041    7059       1    7020    7029   -7044    7059       1
    7020    7029    7044    7065       1    7020    7029    7047    7068       1
    7209    7197    7206    7215       1    7209    7218   -7224    7215       1
    7206    7197    7209    7218       1    7206    7215   -7224    7218       1
    7200    7206    7197    7209       1    7200    7206    7215    7224       1
    7197    7206    7215    7224       1    7197    7209   -7218    7224       1
    7191    7173    7188    7197       1    7191    7200   -7206    7197       1
    7191    7200    7206    7215       1    7188    7173    7191    7200       1
    7188    7197   -7206    7200       1    7188    7197    7206    7215       1
    7188    7197    7209    7218       1    7176    7188    7173    7191       1
    7176    7188    7197    7206       1    7176    7188    7197    7209       1
    7173    7188    7197    7206       1    7173    7188    7197    7209       1
    7173    7191   -7200    7206       1    7167    7152    7173    7188       1
    7167    7152    7173    7191       1    7155    7137    7152    7167       1
    7155    7137    7152    7173       1    7155    7176   -7188    7173       1
    7155    7176    7188    7197       1    7152    7137    7155    7176       1
    7152    7173   -7188    7176       1    7152    7173    7188    7197       1
    7152    7173    7191    7200       1    7149    7134    7146    7158       1
    7149    7167    7152    7173       1    7146    7134    7149    7167       1
    7137    7128    7131    7140       1    7137    7128    7134    7146       1
    7137    7128    7134    7149       1    7137    7152   -7167    7149       1
    7137    7152    7173    7188       1    7137    7152    7173    7191       1
    7137    7155   -7176    7188       1    7134    7128    7131    7140       1
    7134    7128    7137    7152       1    7134    7128    7137    7155       1
    7134    7146   -7158    7140       1    7134    7149   -7167    7152       1
    7131    7128    7134    7146       1    7131    7128    7134    7149       1
    7131    7128    7137    7152       1    7131    7128    7137    7155       1
    7131    7140   -7158    7146       1    7128    7131    7140    7158       1
    7128    7134   -7146    7158       1    7128    7134    7149    7167       1
    7128    7137   -7152    7167       1    7128    7137    7152    7173       1
    7128    7137    7155    7176       1    7317    7305    7314    7323       1
    7317    7326   -7332    7323       1    7314    7305    7317    7326       1
    7314    7323   -7332    7326       1    7308    7314    7305    7317       1
    7308    7314    7323    7332       1    7305    7314    7323    7332       1
    7305    7317   -7326    7332       1    7299    7281    7296    7305       1
    7299    7308   -7314    7305       1    7299    7308    7314    7323       1
    7296    7281    7299    7308       1    7296    7305   -7314    7308       1
    7296    7305    7314    7323       1    7296    7305    7317    7326       1
    7284    7296    7281    7299       1    7284    7296    7305    7314       1
    7284    7296    7305    7317       1    7281    7296    7305    7314       1
    7281    7296    7305    7317       1    7281    7299   -7308    7314       1
    7275    7260    7281    7296       1    7275    7260    7281    7299       1
    7263    7245    7260    7275       1    7263    7245    7260    7281       1
    7263    7284   -7296    7281       1    7263    7284    7296    7305       1
    7260    7245    7263    7284       1    7260    7281   -7296    7284       1
    7260    7281    7296    7305       1    7260    7281    7299    7308       1
    7257    7242    7254    7266       1    7257    7275    7260    7281       1
    7254    7242    7257    7275       1    7245    7236    7239    7248       1
    7245    7236    7242    7254       1    7245    7236    7242    7257       1
    7245    7260   -7275    7257       1    7245    7260    7281    7296       1
    7245    7260    7281    7299       1    7245    7263   -7284    7296       1
    7242    7236    7239    7248       1    7242    7236    7245    7260       1
    7242    7236    7245    7263       1    7242    7254   -7266    7248       1
    7242    7257   -7275    7260       1    7239    7236    7242    7254       1
    7239    7236    7242    7257       1    7239    7236    7245    7260       1
    7239    7236    7245    7263       1    7239    7248   -7266    7254       1
    7236    7239    7248    7266       1    7236    7242   -7254    7266       1
    7236    7242    7257    7275       1    7236    7245   -7260    7275       1
    7236    7245    7260    7281       1    7236    7245    7263    7284       1
    7425    7413    7422    7431       1    7425    7434   -7440    7431       1
    7422    7413    7425    7434       1    7422    7431   -7440    7434       1
    7416    7422    7413    7425       1    7416    7422    7431    7440       1
    7413    7422    7431    7440       1    7413    7425   -7434    7440       1
    7407    7389    7404    7413       1    7407    7416   -7422    7413       1
    7407    7416    7422    7431       1    7404    7389    7407    7416       1
    7404    7413   -7422    7416       1    7404    7413    7422    7431       1
    7404    7413    7425    7434       1    7392    7404    7389    7407       1
    7392    7404    7413    7422       1    7392    7404    7413    7425       1
    7389    7404    7413    7422       1    7389    7404    7413    7425       1
    7389    7407   -7416    7422       1    7383    7368    7389    7404       1
    7383    7368    7389    7407       1    7371    7353    7368    7383       1
    7371    7353    7368    7389       1    7371    7392   -7404    7389       1
    7371    7392    7404    7413       1    7368    7353    7371    7392       1
    7368    7389   -7404    7392       1    7368    7389    7404    7413       1
    7368    7389    7407    7416       1    7365    7350    7362    7374       1
    7365    7383    7368    7389       1    7362    7350    7365    7383       1
    7353    7344    7347    7356       1    7353    7344    7350    7362       1
    7353    7344    7350    7365       1    7353    7368   -7383    7365       1
    7353    7368    7389    7404       1    7353    7368    7389    7407       1
    7353    7371   -7392    7404       1    7350    7344    7347    7356       1
    7350    7344    7353    7368       1    7350    7344    7353    7371       1
    7350    7362   -7374    7356       1    7350    7365   -7383    7368       1
    7347    7344    7350    7362       1    7347    7344    7350    7365       1
    7347    7344    7353    7368       1    7347    7344    7353    7371       1
    7347    7356   -7374    7362       1    7344    7347    7356    7374       1
    7344    7350   -7362    7374       1    7344    7350    7365    7383       1
    7344    7353   -7368    7383       1    7344    7353    7368    7389       1
    7344    7353    7371    7392       1    7533    7521    7530    7539       1
    7533    7542   -7548    7539       1    7530    7521    7533    7542       1
    7530    7539   -7548    7542       1    7524    7530    7521    7533       1
    7524    7530    7539    7548       1    7521    7530    7539    7548       1
    7521    7533   -7542    7548       1    7515    7497    7512    7521       1
    7515    7524   -7530    7521       1    7515    7524    7530    7539       1
    7512    7497    7515    7524       1    7512    7521   -7530    7524       1
    7512    7521    7530    7539       1    7512    7521    7533    7542       1
    7500    7512    7497    7515       1    7500    7512    7521    7530       1
    7500    7512    7521    7533       1    7497    7512    7521    7530       1
    7497    7512    7521    7533       1    7497    7515   -7524    7530       1
    7491    7476    7497    7512       1    7491    7476    7497    7515       1
    7479    7461    7476    7491       1    7479    7461    7476    7497       1
    7479    7500   -7512    7497       1    7479    7500    7512    7521       1
    7476    7461    7479    7500       1    7476    7497   -7512    7500       1
    7476    7497    7512    7521       1    7476    7497    7515    7524       1
    7473    7458    7470    7482       1    7473    7491    7476    7497       1
    7470    7458    7473    7491       1    7461    7452    7455    7464       1
    7461    7452    7458    7470       1    7461    7452    7458    7473       1
    7461    7476   -7491    7473       1    7461    7476    7497    7512       1
    7461    7476    7497    7515       1    7461    7479   -7500    7512       1
    7458    7452    7455    7464       1    7458    7452    7461    7476       1
    7458    7452    7461    7479       1    7458    7470   -7482    7464       1
    7458    7473   -7491    7476       1    7455    7452    7458    7470       1
    7455    7452    7458    7473       1    7455    7452    7461    7476       1
    7455    7452    7461    7479       1    7455    7464   -7482    7470       1
    7452    7455    7464    7482       1    7452    7458   -7470    7482       1
    7452    7458    7473    7491       1    7452    7461   -7476    7491       1
    7452    7461    7476    7497       1    7452    7461    7479    7500       1
    7641    7629    7638    7647       1    7641    7650   -7656    7647       1
    7638    7629    7641    7650       1    7638    7647   -7656    7650       1
    7632    7638    7629    7641       1    7632    7638    7647    7656       1
    7629    7638    7647    7656       1    7629    7641   -7650    7656       1
    7623    7605    7620    7629       1    7623    7632   -7638    7629       1
    7623    7632    7638    7647       1    7620    7605    7623    7632       1
    7620    7629   -7638    7632       1    7620    7629    7638    7647       1
    7620    7629    7641    7650       1    7608    7620    7605    7623       1
    7608    7620    7629    7638       1    7608    7620    7629    7641       1
    7605    7620    7629    7638       1    7605    7620    7629    7641       1
    7605    7623   -7632    7638       1    7599    7584    7605    7620       1
    7599    7584    7605    7623       1    7587    7569    7584    7599       1
    7587    7569    7584    7605       1    7587    7608   -7620    7605       1
    7587    7608    7620    7629       1    7584    7569    7587    7608       1
    7584    7605   -7620    7608       1    7584    7605    7620    7629       1
    7584    7605    7623    7632       1    7581    7566    7578    7590       1
    7581    7599    7584    7605       1    7578    7566    7581    7599       1
    7569    7560    7563    7572       1    7569    7560    7566    7578       1
    7569    7560    7566    7581       1    7569    7584   -7599    7581       1
    7569    7584    7605    7620       1    7569    7584    7605    7623       1
    7569    7587   -7608    7620       1    7566    7560    7563    7572       1
    7566    7560    7569    7584       1    7566    7560    7569    7587       1
    7566    7578   -7590    7572       1    7566    7581   -7599    7584       1
    7563    7560    7566    7578       1    7563    7560    7566    7581       1
    7563    7560    7569    7584       1    7563    7560    7569    7587       1
    7563    7572   -7590    7578       1    7560    7563    7572    7590       1
    7560    7566   -7578    7590       1    7560    7566    7581    7599       1
    7560    7569   -7584    7599       1    7560    7569    7584    7605       1
    7560    7569    7587    7608       1    7749    7737    7746    7755       1
    7749    7758   -7764    7755       1    7746    7737    7749    7758       1
    7746    7755   -7764    7758       1    7740    7746    7737    7749       1
    7740    7746    7755    7764       1    7737    7746    7755    7764       1
    7737    7749   -7758    7764       1    7731    7713    7728    7737       1
    7731    7740   -7746    7737       1    7731    7740    7746    7755       1
    7728    7713    7731    7740       1    7728    7737   -7746    7740       1
    7728    7737    7746    7755       1    7728    7737    7749    7758       1
    7716    7728    7713    7731       1    7716    7728    7737    7746       1
    7716    7728    7737    7749       1    7713    7728    7737    7746       1
    7713    7728    7737    7749       1    7713    7731   -7740    7746       1
    7707    7692    7713    7728       1    7707    7692    7713    7731       1
    7695    7677    7692    7707       1    7695    7677    7692    7713       1
    7695    7716   -7728    7713       1    7695    7716    7728    7737       1
    7692    7677    7695    7716       1    7692    7713   -7728    7716       1
    7692    7713    7728    7737       1    7692    7713    7731    7740       1
    7689    7674    7686    7698       1    7689    7707    7692    7713       1
    7686    7674    7689    7707       1    7677    7668    7671    7680       1
    7677    7668    7674    7686       1    7677    7668    7674    7689       1
    7677    7692   -7707    7689       1    7677    7692    7713    7728       1
    7677    7692    7713    7731       1    7677    7695   -7716    7728       1
    7674    7668    7671    7680       1    7674    7668    7677    7692       1
    7674    7668    7677    7695       1    7674    7686   -7698    7680       1
    7674    7689   -7707    7692       1    7671    7668    7674    7686       1
    7671    7668    7674    7689       1    7671    7668    7677    7692       1
    7671    7668    7677    7695       1    7671    7680   -7698    7686       1
    7668    7671    7680    7698       1    7668    7674   -7686    7698       1
    7668    7674    7689    7707       1    7668    7677   -7692    7707       1
    7668    7677    7692    7713       1    7668    7677    7695    7716       1
    7857    7845    7854    7863       1    7857    7866   -7872    7863       1
    7854    7845    7857    7866       1    7854    7863   -7872    7866       1
    7848    7854    7845    7857       1    7848    7854    7863    7872       1
    7845    7854    7863    7872       1    7845    7857   -7866    7872       1
    7839    7821    7836    7845       1    7839    7848   -7854    7845       1
    7839    7848    7854    7863       1    7836    7821    7839    7848       1
    7836    7845   -7854    7848       1    7836    7845    7854    7863       1
    7836    7845    7857    7866       1    7824    7836    7821    7839       1
    7824    7836    7845    7854       1    7824    7836    7845    7857       1
    7821    7836    7845    7854       1    7821    7836    7845    7857       1
    7821    7839   -7848    7854       1    7815    7800    7821    7836       1
    7815    7800    7821    7839       1    7803    7785    7800    7815       1
    7803    7785    7800    7821       1    7803    7824   -7836    7821       1
    7803    7824    7836    7845       1    7800    7785    7803    7824       1
    7800    7821   -7836    7824       1    7800    7821    7836    7845       1
    7800    7821    7839    7848       1    7797    7782    7794    7806       1
    7797    7815    7800    7821       1    7794    7782    7797    7815       1
    7785    7776    7779    7788       1    7785    7776    7782    7794       1
    7785    7776    7782    7797       1    7785    7800   -7815    7797       1
    7785    7800    7821    7836       1    7785    7800    7821    7839       1
    7785    7803   -7824    7836       1    7782    7776    7779    7788       1
    7782    7776    7785    7800       1    7782    7776    7785    7803       1
    7782    7794   -7806    7788       1    7782    7797   -7815    7800       1
    7779    7776    7782    7794       1    7779    7776    7782    7797       1
    7779    7776    7785    7800       1    7779    7776    7785    7803       1
    7779    7788   -7806    7794       1    7776    7779    7788    7806       1
    7776    7782   -7794    7806       1    7776    7782    7797    7815       1
    7776    7785   -7800    7815       1    7776    7785    7800    7821       1
    7776    7785    7803    7824       1    7965    7953    7962    7971       1
    7965    7974   -7980    7971       1    7962    7953    7965    7974       1
    7962    7971   -7980    7974       1    7956    7962    7953    7965       1
    7956    7962    7971    7980       1    7953    7962    7971    7980       1
    7953    7965   -7974    7980       1    7947    7929    7944    7953       1
    7947    7956   -7962    7953       1    7947    7956    7962    7971       1
    7944    7929    7947    7956       1    7944    7953   -7962    7956       1
    7944    7953    7962    7971       1    7944    7953    7965    7974       1
    7932    7944    7929    7947       1    7932    7944    7953    7962       1
    7932    7944    7953    7965       1    7929    7944    7953    7962       1
    7929    7944    7953    7965       1    7929    7947   -7956    7962       1
    7923    7908    7929    7944       1    7923    7908    7929    7947       1
    7911    7893    7908    7923       1    7911    7893    7908    7929       1
    7911    7932   -7944    7929       1    7911    7932    7944    7953       1
    7908    7893    7911    7932       1    7908    7929   -7944    7932       1
    7908    7929    7944    7953       1    7908    7929    7947    7956       1
    7905    7890    7902    7914       1    7905    7923    7908    7929       1
    7902    7890    7905    7923       1    7893    7884    7887    7896       1
    7893    7884    7890    7902       1    7893    7884    7890    7905       1
    7893    7908   -7923    7905       1    7893    7908    7929    7944       1
    7893    7908    7929    7947       1    7893    7911   -7932    7944       1
    7890    7884    7887    7896       1    7890    7884    7893    7908       1
    7890    7884    7893    7911       1    7890    7902   -7914    7896       1
    7890    7905   -7923    7908       1    7887    7884    7890    7902       1
    7887    7884    7890    7905       1    7887    7884    7893    7908       1
    7887    7884    7893    7911       1    7887    7896   -7914    7902       1
    7884    7887    7896    7914       1    7884    7890   -7902    7914       1
    7884    7890    7905    7923       1    7884    7893   -7908    7923       1
    7884    7893    7908    7929       1    7884    7893    7911    7932       1
    8073    8061    8070    8079       1    8073    8082   -8088    8079       1
    8070    8061    8073    8082       1    8070    8079   -8088    8082       1
    8064    8070    8061    8073       1    8064    8070    8079    8088       1
    8061    8070    8079    8088       1    8061    8073   -8082    8088       1
    8055    8037    8052    8061       1    8055    8064   -8070    8061       1
    8055    8064    8070    8079       1    8052    8037    8055    8064       1
    8052    8061   -8070    8064       1    8052    8061    8070    8079       1
    8052    8061    8073    8082       1    8040    8052    8037    8055       1
    8040    8052    8061    8070       1    8040    8052    8061    8073       1
    8037    8052    8061    8070       1    8037    8052    8061    8073       1
    8037    8055   -8064    8070       1    8031    8016    8037    8052       1
    8031    8016    8037    8055       1    8019    8001    8016    8031       1
    8019    8001    8016    8037       1    8019    8040   -8052    8037       1
    8019    8040    8052    8061       1    8016    8001    8019    8040       1
    8016    8037   -8052    8040       1    8016    8037    8052    8061       1
    8016    8037    8055    8064       1    8013    7998    8010    8022       1
    8013    8031    8016    8037       1    8010    7998    8013    8031       1
    8001    7992    7995    8004       1    8001    7992    7998    8010       1
    8001    7992    7998    8013       1    8001    8016   -8031    8013       1
    8001    8016    8037    8052       1    8001    8016    8037    8055       1
    8001    8019   -8040    8052       1    7998    7992    7995    8004       1
    7998    7992    8001    8016       1    7998    7992    8001    8019       1
    7998    8010   -8022    8004       1    7998    8013   -8031    8016       1
    7995    7992    7998    8010       1    7995    7992    7998    8013       1
    7995    7992    8001    8016       1    7995    7992    8001    8019       1
    7995    8004   -8022    8010       1    7992    7995    8004    8022       1
    7992    7998   -8010    8022       1    7992    7998    8013    8031       1
    7992    8001   -8016    8031       1    7992    8001    8016    8037       1
    7992    8001    8019    8040       1    8181    8169    8178    8187       1
    8181    8190   -8196    8187       1    8178    8169    8181    8190       1
    8178    8187   -8196    8190       1    8172    8178    8169    8181       1
    8172    8178    8187    8196       1    8169    8178    8187    8196       1
    8169    8181   -8190    8196       1    8163    8145    8160    8169       1
    8163    8172   -8178    8169       1    8163    8172    8178    8187       1
    8160    8145    8163    8172       1    8160    8169   -8178    8172       1
    8160    8169    8178    8187       1    8160    8169    8181    8190       1
    8148    8160    8145    8163       1    8148    8160    8169    8178       1
    8148    8160    8169    8181       1    8145    8160    8169    8178       1
    8145    8160    8169    8181       1    8145    8163   -8172    8178       1
    8139    8124    8145    8160       1    8139    8124    8145    8163       1
    8127    8109    8124    8139       1    8127    8109    8124    8145       1
    8127    8148   -8160    8145       1    8127    8148    8160    8169       1
    8124    8109    8127    8148       1    8124    8145   -8160    8148       1
    8124    8145    8160    8169       1    8124    8145    8163    8172       1
    8121    8106    8118    8130       1    8121    8139    8124    8145       1
    8118    8106    8121    8139       1    8109    8100    8103    8112       1
    8109    8100    8106    8118       1    8109    8100    8106    8121       1
    8109    8124   -8139    8121       1    8109    8124    8145    8160       1
    8109    8124    8145    8163       1    8109    8127   -8148    8160       1
    8106    8100    8103    8112       1    8106    8100    8109    8124       1
    8106    8100    8109    8127       1    8106    8118   -8130    8112       1
    8106    8121   -8139    8124       1    8103    8100    8106    8118       1
    8103    8100    8106    8121       1    8103    8100    8109    8124       1
    8103    8100    8109    8127       1    8103    8112   -8130    8118       1
    8100    8103    8112    8130       1    8100    8106   -8118    8130       1
    8100    8106    8121    8139       1    8100    8109   -8124    8139       1
    8100    8109    8124    8145       1    8100    8109    8127    8148       1
    8289    8277    8286    8295       1    8289    8298   -8304    8295       1
    8286    8277    8289    8298       1    8286    8295   -8304    8298       1
    8280    8286    8277    8289       1    8280    8286    8295    8304       1
    8277    8286    8295    8304       1    8277    8289   -8298    8304       1
    8271    8253    8268    8277       1    8271    8280   -8286    8277       1
    8271    8280    8286    8295       1    8268    8253    8271    8280       1
    8268    8277   -8286    8280       1    8268    8277    8286    8295       1
    8268    8277    8289    8298       1    8256    8268    8253    8271       1
    8256    8268    8277    8286       1    8256    8268    8277    8289       1
    8253    8268    8277    8286       1    8253    8268    8277    8289       1
    8253    8271   -8280    8286       1    8247    8232    8253    8268       1
    8247    8232    8253    8271       1    8235    8217    8232    8247       1
    8235    8217    8232    8253       1    8235    8256   -8268    8253       1
    8235    8256    8268    8277       1    8232    8217    8235    8256       1
    8232    8253   -8268    8256       1    8232    8253    8268    8277       1
    8232    8253    8271    8280       1    8229    8214    8226    8238       1
    8229    8247    8232    8253       1    8226    8214    8229    8247       1
    8217    8208    8211    8220       1    8217    8208    8214    8226       1
    8217    8208    8214    8229       1    8217    8232   -8247    8229       1
    8217    8232    8253    8268       1    8217    8232    8253    8271       1
    8217    8235   -8256    8268       1    8214    8208    8211    8220       1
    8214    8208    8217    8232       1    8214    8208    8217    8235       1
    8214    8226   -8238    8220       1    8214    8229   -8247    8232       1
    8211    8208    8214    8226       1    8211    8208    8214    8229       1
    8211    8208    8217    8232       1    8211    8208    8217    8235       1
    8211    8220   -8238    8226       1    8208    8211    8220    8238       1
    8208    8214   -8226    8238       1    8208    8214    8229    8247       1
    8208    8217   -8232    8247       1    8208    8217    8232    8253       1
    8208    8217    8235    8256       1    8397    8385    8394    8403       1
    8397    8406   -8412    8403       1    8394    8385    8397    8406       1
    8394    8403   -8412    8406       1    8388    8394    8385    8397       1
    8388    8394    8403    8412       1    8385    8394    8403    8412       1
    8385    8397   -8406    8412       1    8379    8361    8376    8385       1
    8379    8388   -8394    8385       1    8379    8388    8394    8403       1
    8376    8361    8379    8388       1    8376    8385   -8394    8388       1
    8376    8385    8394    8403       1    8376    8385    8397    8406       1
    8364    8376    8361    8379       1    8364    8376    8385    8394       1
    8364    8376    8385    8397       1    8361    8376    8385    8394       1
    8361    8376    8385    8397       1    8361    8379   -8388    8394       1
    8355    8340    8361    8376       1    8355    8340    8361    8379       1
    8343    8325    8340    8355       1    8343    8325    8340    8361       1
    8343    8364   -8376    8361       1    8343    8364    8376    8385       1
    8340    8325    8343    8364       1    8340    8361   -8376    8364       1
    8340    8361    8376    8385       1    8340    8361    8379    8388       1
    8337    8322    8334    8346       1    8337    8355    8340    8361       1
    8334    8322    8337    8355       1    8325    8316    8319    8328       1
    8325    8316    8322    8334       1    8325    8316    8322    8337       1
    8325    8340   -8355    8337       1    8325    8340    8361    8376       1
    8325    8340    8361    8379       1    8325    8343   -8364    8376       1
    8322    8316    8319    8328       1    8322    8316    8325    8340       1
    8322    8316    8325    8343       1    8322    8334   -8346    8328       1
    8322    8337   -8355    8340       1    8319    8316    8322    8334       1
    8319    8316    8322    8337       1    8319    8316    8325    8340       1
    8319    8316    8325    8343       1    8319    8328   -8346    8334       1
    8316    8319    8328    8346       1    8316    8322   -8334    8346       1
    8316    8322    8337    8355       1    8316    8325   -8340    8355       1
    8316    8325    8340    8361       1    8316    8325    8343    8364       1
    8505    8493    8502    8511       1    8505    8514   -8520    8511       1
    8502    8493    8505    8514       1    8502    8511   -8520    8514       1
    8496    8502    8493    8505       1    8496    8502    8511    8520       1
    8493    8502    8511    8520       1    8493    8505   -8514    8520       1
    8487    8469    8484    8493       1    8487    8496   -8502    8493       1
    8487    8496    8502    8511       1    8484    8469    8487    8496       1
    8484    8493   -8502    8496       1    8484    8493    8502    8511       1
    8484    8493    8505    8514       1    8472    8484    8469    8487       1
    8472    8484    8493    8502       1    8472    8484    8493    8505       1
    8469    8484    8493    8502       1    8469    8484    8493    8505       1
    8469    8487   -8496    8502       1    8463    8448    8469    8484       1
    8463    8448    8469    8487       1    8451    8433    8448    8463       1
    8451    8433    8448    8469       1    8451    8472   -8484    8469       1
    8451    8472    8484    8493       1    8448    8433    8451    8472       1
    8448    8469   -8484    8472       1    8448    8469    8484    8493       1
    8448    8469    8487    8496       1    8445    8430    8442    8454       1
    8445    8463    8448    8469       1    8442    8430    8445    8463       1
    8433    8424    8427    8436       1    8433    8424    8430    8442       1
    8433    8424    8430    8445       1    8433    8448   -8463    8445       1
    8433    8448    8469    8484       1    8433    8448    8469    8487       1
    8433    8451   -8472    8484       1    8430    8424    8427    8436       1
    8430    8424    8433    8448       1    8430    8424    8433    8451       1
    8430    8442   -8454    8436       1    8430    8445   -8463    8448       1
    8427    8424    8430    8442       1    8427    8424    8430    8445       1
    8427    8424    8433    8448       1    8427    8424    8433    8451       1
    8427    8436   -8454    8442       1    8424    8427    8436    8454       1
    8424    8430   -8442    8454       1    8424    8430    8445    8463       1
    8424    8433   -8448    8463       1    8424    8433    8448    8469       1
    8424    8433    8451    8472       1    8613    8601    8610    8619       1
    8613    8622   -8628    8619       1    8610    8601    8613    8622       1
    8610    8619   -8628    8622       1    8604    8610    8601    8613       1
    8604    8610    8619    8628       1    8601    8610    8619    8628       1
    8601    8613   -8622    8628       1    8595    8577    8592    8601       1
    8595    8604   -8610    8601       1    8595    8604    8610    8619       1
    8592    8577    8595    8604       1    8592    8601   -8610    8604       1
    8592    8601    8610    8619       1    8592    8601    8613    8622       1
    8580    8592    8577    8595       1    8580    8592    8601    8610       1
    8580    8592    8601    8613       1    8577    8592    8601    8610       1
    8577    8592    8601    8613       1    8577    8595   -8604    8610       1
    8571    8556    8577    8592       1    8571    8556    8577    8595       1
    8559    8541    8556    8571       1    8559    8541    8556    8577       1
    8559    8580   -8592    8577       1    8559    8580    8592    8601       1
    8556    8541    8559    8580       1    8556    8577   -8592    8580       1
    8556    8577    8592    8601       1    8556    8577    8595    8604       1
    8553    8538    8550    8562       1    8553    8571    8556    8577       1
    8550    8538    8553    8571       1    8541    8532    8535    8544       1
    8541    8532    8538    8550       1    8541    8532    8538    8553       1
    8541    8556   -8571    8553       1    8541    8556    8577    8592       1
    8541    8556    8577    8595       1    8541    8559   -8580    8592       1
    8538    8532    8535    8544       1    8538    8532    8541    8556       1
    8538    8532    8541    8559       1    8538    8550   -8562    8544       1
    8538    8553   -8571    8556       1    8535    8532    8538    8550       1
    8535    8532    8538    8553       1    8535    8532    8541    8556       1
    8535    8532    8541    8559       1    8535    8544   -8562    8550       1
    8532    8535    8544    8562       1    8532    8538   -8550    8562       1
    8532    8538    8553    8571       1    8532    8541   -8556    8571       1
    8532    8541    8556    8577       1    8532    8541    8559    8580       1
    8721    8709    8718    8727       1    8721    8730   -8736    8727       1
    8718    8709    8721    8730       1    8718    8727   -8736    8730       1
    8712    8718    8709    8721       1    8712    8718    8727    8736       1
    8709    8718    8727    8736       1    8709    8721   -8730    8736       1
    8703    8685    8700    8709       1    8703    8712   -8718    8709       1
    8703    8712    8718    8727       1    8700    8685    8703    8712       1
    8700    8709   -8718    8712       1    8700    8709    8718    8727       1
    8700    8709    8721    8730       1    8688    8700    8685    8703       1
    8688    8700    8709    8718       1    8688    8700    8709    8721       1
    8685    8700    8709    8718       1    8685    8700    8709    8721       1
    8685    8703   -8712    8718       1    8679    8664    8685    8700       1
    8679    8664    8685    8703       1    8667    8649    8664    8679       1
    8667    8649    8664    8685       1    8667    8688   -8700    8685       1
    8667    8688    8700    8709       1    8664    8649    8667    8688       1
    8664    8685   -8700    8688       1    8664    8685    8700    8709       1
    8664    8685    8703    8712       1    8661    8646    8658    8670       1
    8661    8679    8664    8685       1    8658    8646    8661    8679       1
    8649    8640    8643    8652       1    8649    8640    8646    8658       1
    8649    8640    8646    8661       1    8649    8664   -8679    8661       1
    8649    8664    8685    8700       1    8649    8664    8685    8703       1
    8649    8667   -8688    8700       1    8646    8640    8643    8652       1
    8646    8640    8649    8664       1    8646    8640    8649    8667       1
    8646    8658   -8670    8652       1    8646    8661   -8679    8664       1
    8643    8640    8646    8658       1    8643    8640    8646    8661       1
    8643    8640    8649    8664       1    8643    8640    8649    8667       1
    8643    8652   -8670    8658       1    8640    8643    8652    8670       1
    8640    8646   -8658    8670       1    8640    8646    8661    8679       1
    8640    8649   -8664    8679       1    8640    8649    8664    8685       1
    8640    8649    8667    8688       1    8829    8817    8826    8835       1
    8829    8838   -8844    8835       1    8826    8817    8829    8838       1
    8826    8835   -8844    8838       1    8820    8826    8817    8829       1
    8820    8826    8835    8844       1    8817    8826    8835    8844       1
    8817    8829   -8838    8844       1    8811    8793    8808    8817       1
    8811    8820   -8826    8817       1    8811    8820    8826    8835       1
    8808    8793    8811    8820       1    8808    8817   -8826    8820       1
    8808    8817    8826    8835       1    8808    8817    8829    8838       1
    8796    8808    8793    8811       1    8796    8808    8817    8826       1
    8796    8808    8817    8829       1    8793    8808    8817    8826       1
    8793    8808    8817    8829       1    8793    8811   -8820    8826       1
    8787    8772    8793    8808       1    8787    8772    8793    8811       1
    8775    8757    8772    8787       1    8775    8757    8772    8793       1
    8775    8796   -8808    8793       1    8775    8796    8808    8817       1
    8772    8757    8775    8796       1    8772    8793   -8808    8796       1
    8772    8793    8808    8817       1    8772    8793    8811    8820       1
    8769    8754    8766    8778       1    8769    8787    8772    8793       1
    8766    8754    8769    8787       1    8757    8748    8751    8760       1
    8757    8748    8754    8766       1    8757    8748    8754    8769       1
    8757    8772   -8787    8769       1    8757    8772    8793    8808       1
    8757    8772    8793    8811       1    8757    8775   -8796    8808       1
    8754    8748    8751    8760       1    8754    8748    8757    8772       1
    8754    8748    8757    8775       1    8754    8766   -8778    8760       1
    8754    8769   -8787    8772       1    8751    8748    8754    8766       1
    8751    8748    8754    8769       1    8751    8748    8757    8772       1
    8751    8748    8757    8775       1    8751    8760   -8778    8766       1
    8748    8751    8760    8778       1    8748    8754   -8766    8778       1
    8748    8754    8769    8787       1    8748    8757   -8772    8787       1
    8748    8757    8772    8793       1    8748    8757    8775    8796       1
    8937    8925    8934    8943       1    8937    8946   -8952    8943       1
    8934    8925    8937    8946       1    8934    8943   -8952    8946       1
    8928    8934    8925    8937       1    8928    8934    8943    8952       1
    8925    8934    8943    8952       1    8925    8937   -8946    8952       1
    8919    8901    8916    8925       1    8919    8928   -8934    8925       1
    8919    8928    8934    8943       1    8916    8901    8919    8928       1
    8916    8925   -8934    8928       1    8916    8925    8934    8943       1
    8916    8925    8937    8946       1    8904    8916    8901    8919       1
    8904    8916    8925    8934       1    8904    8916    8925    8937       1
    8901    8916    8925    8934       1    8901    8916    8925    8937       1
    8901    8919   -8928    8934       1    8895    8880    8901    8916       1
    8895    8880    8901    8919       1    8883    8865    8880    8895       1
    8883    8865    8880    8901       1    8883    8904   -8916    8901       1
    8883    8904    8916    8925       1    8880    8865    8883    8904       1
    8880    8901   -8916    8904       1    8880    8901    8916    8925       1
    8880    8901    8919    8928       1    8877    8862    8874    8886       1
    8877    8895    8880    8901       1    8874    8862    8877    8895       1
    8865    8856    8859    8868       1    8865    8856    8862    8874       1
    8865    8856    8862    8877       1    8865    8880   -8895    8877       1
    8865    8880    8901    8916       1    8865    8880    8901    8919       1
    8865    8883   -8904    8916       1    8862    8856    8859    8868       1
    8862    8856    8865    8880       1    8862    8856    8865    8883       1
    8862    8874   -8886    8868       1    8862    8877   -8895    8880       1
    8859    8856    8862    8874       1    8859    8856    8862    8877       1
    8859    8856    8865    8880       1    8859    8856    8865    8883       1
    8859    8868   -8886    8874       1    8856    8859    8868    8886       1
    8856    8862   -8874    8886       1    8856    8862    8877    8895       1
    8856    8865   -8880    8895       1    8856    8865    8880    8901       1
    8856    8865    8883    8904       1    9045    9033    9042    9051       1
    9045    9054   -9060    9051       1    9042    9033    9045    9054       1
    9042    9051   -9060    9054       1    9036    9042    9033    9045       1
    9036    9042    9051    9060       1    9033    9042    9051    9060       1
    9033    9045   -9054    9060       1    9027    9009    9024    9033       1
    9027    9036   -9042    9033       1    9027    9036    9042    9051       1
    9024    9009    9027    9036       1    9024    9033   -9042    9036       1
    9024    9033    9042    9051       1    9024    9033    9045    9054       1
    9012    9024    9009    9027       1    9012    9024    9033    9042       1
    9012    9024    9033    9045       1    9009    9024    9033    9042       1
    9009    9024    9033    9045       1    9009    9027   -9036    9042       1
    9003    8988    9009    9024       1    9003    8988    9009    9027       1
    8991    8973    8988    9003       1    8991    8973    8988    9009       1
    8991    9012   -9024    9009       1    8991    9012    9024    9033       1
    8988    8973    8991    9012       1    8988    9009   -9024    9012       1
    8988    9009    9024    9033       1    8988    9009    9027    9036       1
    8985    8970    8982    8994       1    8985    9003    8988    9009       1
    8982    8970    8985    9003       1    8973    8964    8967    8976       1
    8973    8964    8970    8982       1    8973    8964    8970    8985       1
    8973    8988   -9003    8985       1    8973    8988    9009    9024       1
    8973    8988    9009    9027       1    8973    8991   -9012    9024       1
    8970    8964    8967    8976       1    8970    8964    8973    8988       1
    8970    8964    8973    8991       1    8970    8982   -8994    8976       1
    8970    8985   -9003    8988       1    8967    8964    8970    8982       1
    8967    8964    8970    8985       1    8967    8964    8973    8988       1
    8967    8964    8973    8991       1    8967    8976   -8994    8982       1
    8964    8967    8976    8994       1    8964    8970   -8982    8994       1
    8964    8970    8985    9003       1    8964    8973   -8988    9003       1
    8964    8973    8988    9009       1    8964    8973    8991    9012       1
    9153    9141    9150    9159       1    9153    9162   -9168    9159       1
    9150    9141    9153    9162       1    9150    9159   -9168    9162       1
    9144    9150    9141    9153       1    9144    9150    9159    9168       1
    9141    9150    9159    9168       1    9141    9153   -9162    9168       1
    9135    9117    9132    9141       1    9135    9144   -9150    9141       1
    9135    9144    9150    9159       1    9132    9117    9135    9144       1
    9132    9141   -9150    9144       1    9132    9141    9150    9159       1
    9132    9141    9153    9162       1    9120    9132    9117    9135       1
    9120    9132    9141    9150       1    9120    9132    9141    9153       1
    9117    9132    9141    9150       1    9117    9132    9141    9153       1
    9117    9135   -9144    9150       1    9111    9096    9117    9132       1
    9111    9096    9117    9135       1    9099    9081    9096    9111       1
    9099    9081    9096    9117       1    9099    9120   -9132    9117       1
    9099    9120    9132    9141       1    9096    9081    9099    9120       1
    9096    9117   -9132    9120       1    9096    9117    9132    9141       1
    9096    9117    9135    9144       1    9093    9078    9090    9102       1
    9093    9111    9096    9117       1    9090    9078    9093    9111       1
    9081    9072    9075    9084       1    9081    9072    9078    9090       1
    9081    9072    9078    9093       1    9081    9096   -9111    9093       1
    9081    9096    9117    9132       1    9081    9096    9117    9135       1
    9081    9099   -9120    9132       1    9078    9072    9075    9084       1
    9078    9072    9081    9096       1    9078    9072    9081    9099       1
    9078    9090   -9102    9084       1    9078    9093   -9111    9096       1
    9075    9072    9078    9090       1    9075    9072    9078    9093       1
    9075    9072    9081    9096       1    9075    9072    9081    9099       1
    9075    9084   -9102    9090       1    9072    9075    9084    9102       1
    9072    9078   -9090    9102       1    9072    9078    9093    9111       1
    9072    9081   -9096    9111       1    9072    9081    9096    9117       1
    9072    9081    9099    9120       1    9261    9249    9258    9267       1
    9261    9270   -9276    9267       1    9258    9249    9261    9270       1
    9258    9267   -9276    9270       1    9252    9258    9249    9261       1
    9252    9258    9267    9276       1    9249    9258    9267    9276       1
    9249    9261   -9270    9276       1    9243    9225    9240    9249       1
    9243    9252   -9258    9249       1    9243    9252    9258    9267       1
    9240    9225    9243    9252       1    9240    9249   -9258    9252       1
    9240    9249    9258    9267       1    9240    9249    9261    9270       1
    9228    9240    9225    9243       1    9228    9240    9249    9258       1
    9228    9240    9249    9261       1    9225    9240    9249    9258       1
    9225    9240    9249    9261       1    9225    9243   -9252    9258       1
    9219    9204    9225    9240       1    9219    9204    9225    9243       1
    9207    9189    9204    9219       1    9207    9189    9204    9225       1
    9207    9228   -9240    9225       1    9207    9228    9240    9249       1
    9204    9189    9207    9228       1    9204    9225   -9240    9228       1
    9204    9225    9240    9249       1    9204    9225    9243    9252       1
    9201    9186    9198    9210       1    9201    9219    9204    9225       1
    9198    9186    9201    9219       1    9189    9180    9183    9192       1
    9189    9180    9186    9198       1    9189    9180    9186    9201       1
    9189    9204   -9219    9201       1    9189    9204    9225    9240       1
    9189    9204    9225    9243       1    9189    9207   -9228    9240       1
    9186    9180    9183    9192       1    9186    9180    9189    9204       1
    9186    9180    9189    9207       1    9186    9198   -9210    9192       1
    9186    9201   -9219    9204       1    9183    9180    9186    9198       1
    9183    9180    9186    9201       1    9183    9180    9189    9204       1
    9183    9180    9189    9207       1    9183    9192   -9210    9198       1
    9180    9183    9192    9210       1    9180    9186   -9198    9210       1
    9180    9186    9201    9219       1    9180    9189   -9204    9219       1
    9180    9189    9204    9225       1    9180    9189    9207    9228       1
    9369    9357    9366    9375       1    9369    9378   -9384    9375       1
    9366    9357    9369    9378       1    9366    9375   -9384    9378       1
    9360    9366    9357    9369       1    9360    9366    9375    9384       1
    9357    9366    9375    9384       1    9357    9369   -9378    9384       1
    9351    9333    9348    9357       1    9351    9360   -9366    9357       1
    9351    9360    9366    9375       1    9348    9333    9351    9360       1
    9348    9357   -9366    9360       1    9348    9357    9366    9375       1
    9348    9357    9369    9378       1    9336    9348    9333    9351       1
    9336    9348    9357    9366       1    9336    9348    9357    9369       1
    9333    9348    9357    9366       1    9333    9348    9357    9369       1
    9333    9351   -9360    9366       1    9327    9312    9333    9348       1
    9327    9312    9333    9351       1    9315    9297    9312    9327       1
    9315    9297    9312    9333       1    9315    9336   -9348    9333       1
    9315    9336    9348    9357       1    9312    9297    9315    9336       1
    9312    9333   -9348    9336       1    9312    9333    9348    9357       1
    9312    9333    9351    9360       1    9309    9294    9306    9318       1
    9309    9327    9312    9333       1    9306    9294    9309    9327       1
    9297    9288    9291    9300       1    9297    9288    9294    9306       1
    9297    9288    9294    9309       1    9297    9312   -9327    9309       1
    9297    9312    9333    9348       1    9297    9312    9333    9351       1
    9297    9315   -9336    9348       1    9294    9288    9291    9300       1
    9294    9288    9297    9312       1    9294    9288    9297    9315       1
    9294    9306   -9318    9300       1    9294    9309   -9327    9312       1
    9291    9288    9294    9306       1    9291    9288    9294    9309       1
    9291    9288    9297    9312       1    9291    9288    9297    9315       1
    9291    9300   -9318    9306       1    9288    9291    9300    9318       1
    9288    9294   -9306    9318       1    9288    9294    9309    9327       1
    9288    9297   -9312    9327       1    9288    9297    9312    9333       1
    9288    9297    9315    9336       1    9477    9465    9474    9483       1
    9477    9486   -9492    9483       1    9474    9465    9477    9486       1
    9474    9483   -9492    9486       1    9468    9474    9465    9477       1
    9468    9474    9483    9492       1    9465    9474    9483    9492       1
    9465    9477   -9486    9492       1    9459    9441    9456    9465       1
    9459    9468   -9474    9465       1    9459    9468    9474    9483       1
    9456    9441    9459    9468       1    9456    9465   -9474    9468       1
    9456    9465    9474    9483       1    9456    9465    9477    9486       1
    9444    9456    9441    9459       1    9444    9456    9465    9474       1
    9444    9456    9465    9477       1    9441    9456    9465    9474       1
    9441    9456    9465    9477       1    9441    9459   -9468    9474       1
    9435    9420    9441    9456       1    9435    9420    9441    9459       1
    9423    9405    9420    9435       1    9423    9405    9420    9441       1
    9423    9444   -9456    9441       1    9423    9444    9456    9465       1
    9420    9405    9423    9444       1    9420    9441   -9456    9444       1
    9420    9441    9456    9465       1    9420    9441    9459    9468       1
    9417    9402    9414    9426       1    9417    9435    9420    9441       1
    9414    9402    9417    9435       1    9405    9396    9399    9408       1
    9405    9396    9402    9414       1    9405    9396    9402    9417       1
    9405    9420   -9435    9417       1    9405    9420    9441    9456       1
    9405    9420    9441    9459       1    9405    9423   -9444    9456       1
    9402    9396    9399    9408       1    9402    9396    9405    9420       1
    9402    9396    9405    9423       1    9402    9414   -9426    9408       1
    9402    9417   -9435    9420       1    9399    9396    9402    9414       1
    9399    9396    9402    9417       1    9399    9396    9405    9420       1
    9399    9396    9405    9423       1    9399    9408   -9426    9414       1
    9396    9399    9408    9426       1    9396    9402   -9414    9426       1
    9396    9402    9417    9435       1    9396    9405   -9420    9435       1
    9396    9405    9420    9441       1    9396    9405    9423    9444       1
    9585    9573    9582    9591       1    9585    9594   -9600    9591       1
    9582    9573    9585    9594       1    9582    9591   -9600    9594       1
    9576    9582    9573    9585       1    9576    9582    9591    9600       1
    9573    9582    9591    9600       1    9573    9585   -9594    9600       1
    9567    9549    9564    9573       1    9567    9576   -9582    9573       1
    9567    9576    9582    9591       1    9564    9549    9567    9576       1
    9564    9573   -9582    9576       1    9564    9573    9582    9591       1
    9564    9573    9585    9594       1    9552    9564    9549    9567       1
    9552    9564    9573    9582       1    9552    9564    9573    9585       1
    9549    9564    9573    9582       1    9549    9564    9573    9585       1
    9549    9567   -9576    9582       1    9543    9528    9549    9564       1
    9543    9528    9549    9567       1    9531    9513    9528    9543       1
    9531    9513    9528    9549       1    9531    9552   -9564    9549       1
    9531    9552    9564    9573       1    9528    9513    9531    9552       1
    9528    9549   -9564    9552       1    9528    9549    9564    9573       1
    9528    9549    9567    9576       1    9525    9510    9522    9534       1
    9525    9543    9528    9549       1    9522    9510    9525    9543       1
    9513    9504    9507    9516       1    9513    9504    9510    9522       1
    9513    9504    9510    9525       1    9513    9528   -9543    9525       1
    9513    9528    9549    9564       1    9513    9528    9549    9567       1
    9513    9531   -9552    9564       1    9510    9504    9507    9516       1
    9510    9504    9513    9528       1    9510    9504    9513    9531       1
    9510    9522   -9534    9516       1    9510    9525   -9543    9528       1
    9507    9504    9510    9522       1    9507    9504    9510    9525       1
    9507    9504    9513    9528       1    9507    9504    9513    9531       1
    9507    9516   -9534    9522       1    9504    9507    9516    9534       1
    9504    9510   -9522    9534       1    9504    9510    9525    9543       1
    9504    9513   -9528    9543       1    9504    9513    9528    9549       1
    9504    9513    9531    9552       1    9693    9681    9690    9699       1
    9693    9702   -9708    9699       1    9690    9681    9693    9702       1
    9690    9699   -9708    9702       1    9684    9690    9681    9693       1
    9684    9690    9699    9708       1    9681    9690    9699    9708       1
    9681    9693   -9702    9708       1    9675    9657    9672    9681       1
    9675    9684   -9690    9681       1    9675    9684    9690    9699       1
    9672    9657    9675    9684       1    9672    9681   -9690    9684       1
    9672    9681    9690    9699       1    9672    9681    9693    9702       1
    9660    9672    9657    9675       1    9660    9672    9681    9690       1
    9660    9672    9681    9693       1    9657    9672    9681    9690       1
    9657    9672    9681    9693       1    9657    9675   -9684    9690       1
    9651    9636    9657    9672       1    9651    9636    9657    9675       1
    9639    9621    9636    9651       1    9639    9621    9636    9657       1
    9639    9660   -9672    9657       1    9639    9660    9672    9681       1
    9636    9621    9639    9660       1    9636    9657   -9672    9660       1
    9636    9657    9672    9681       1    9636    9657    9675    9684       1
    9633    9618    9630    9642       1    9633    9651    9636    9657       1
    9630    9618    9633    9651       1    9621    9612    9615    9624       1
    9621    9612    9618    9630       1    9621    9612    9618    9633       1
    9621    9636   -9651    9633       1    9621    9636    9657    9672       1
    9621    9636    9657    9675       1    9621    9639   -9660    9672       1
    9618    9612    9615    9624       1    9618    9612    9621    9636       1
    9618    9612    9621    9639       1    9618    9630   -9642    9624       1
    9618    9633   -9651    9636       1    9615    9612    9618    9630       1
    9615    9612    9618    9633       1    9615    9612    9621    9636       1
    9615    9612    9621    9639       1    9615    9624   -9642    9630       1
    9612    9615    9624    9642       1    9612    9618   -9630    9642       1
    9612    9618    9633    9651       1    9612    9621   -9636    9651       1
    9612    9621    9636    9657       1    9612    9621    9639    9660       1
    9801    9789    9798    9807       1    9801    9810   -9816    9807       1
    9798    9789    9801    9810       1    9798    9807   -9816    9810       1
    9792    9798    9789    9801       1    9792    9798    9807    9816       1
    9789    9798    9807    9816       1    9789    9801   -9810    9816       1
    9783    9765    9780    9789       1    9783    9792   -9798    9789       1
    9783    9792    9798    9807       1    9780    9765    9783    9792       1
    9780    9789   -9798    9792       1    9780    9789    9798    9807       1
    9780    9789    9801    9810       1    9768    9780    9765    9783       1
    9768    9780    9789    9798       1    9768    9780    9789    9801       1
    9765    9780    9789    9798       1    9765    9780    9789    9801       1
    9765    9783   -9792    9798       1    9759    9744    9765    9780       1
    9759    9744    9765    9783       1    9747    9729    9744    9759       1
    9747    9729    9744    9765       1    9747    9768   -9780    9765       1
    9747    9768    9780    9789       1    9744    9729    9747    9768       1
    9744    9765   -9780    9768       1    9744    9765    9780    9789       1
    9744    9765    9783    9792       1    9741    9726    9738    9750       1
    9741    9759    9744    9765       1    9738    9726    9741    9759       1
    9729    9720    9723    9732       1    9729    9720    9726    9738       1
    9729    9720    9726    9741       1    9729    9744   -9759    9741       1
    9729    9744    9765    9780       1    9729    9744    9765    9783       1
    9729    9747   -9768    9780       1    9726    9720    9723    9732       1
    9726    9720    9729    9744       1    9726    9720    9729    9747       1
    9726    9738   -9750    9732       1    9726    9741   -9759    9744       1
    9723    9720    9726    9738       1    9723    9720    9726    9741       1
    9723    9720    9729    9744       1    9723    9720    9729    9747       1
    9723    9732   -9750    9738       1    9720    9723    9732    9750       1
    9720    9726   -9738    9750       1    9720    9726    9741    9759       1
    9720    9729   -9744    9759       1    9720    9729    9744    9765       1
    9720    9729    9747    9768       1    9909    9897    9906    9915       1
    9909    9918   -9924    9915       1    9906    9897    9909    9918       1
    9906    9915   -9924    9918       1    9900    9906    9897    9909       1
    9900    9906    9915    9924       1    9897    9906    9915    9924       1
    9897    9909   -9918    9924       1    9891    9873    9888    9897       1
    9891    9900   -9906    9897       1    9891    9900    9906    9915       1
    9888    9873    9891    9900       1    9888    9897   -9906    9900       1
    9888    9897    9906    9915       1    9888    9897    9909    9918       1
    9876    9888    9873    9891       1    9876    9888    9897    9906       1
    9876    9888    9897    9909       1    9873    9888    9897    9906       1
    9873    9888    9897    9909       1    9873    9891   -9900    9906       1
    9867    9852    9873    9888       1    9867    9852    9873    9891       1
    9855    9837    9852    9867       1    9855    9837    9852    9873       1
    9855    9876   -9888    9873       1    9855    9876    9888    9897       1
    9852    9837    9855    9876       1    9852    9873   -9888    9876       1
    9852    9873    9888    9897       1    9852    9873    9891    9900       1
    9849    9834    9846    9858       1    9849    9867    9852    9873       1
    9846    9834    9849    9867       1    9837    9828    9831    9840       1
    9837    9828    9834    9846       1    9837    9828    9834    9849       1
    9837    9852   -9867    9849       1    9837    9852    9873    9888       1
    9837    9852    9873    9891       1    9837    9855   -9876    9888       1
    9834    9828    9831    9840       1    9834    9828    9837    9852       1
    9834    9828    9837    9855       1    9834    9846   -9858    9840       1
    9834    9849   -9867    9852       1    9831    9828    9834    9846       1
    9831    9828    9834    9849       1    9831    9828    9837    9852       1
    9831    9828    9837    9855       1    9831    9840   -9858    9846       1
    9828    9831    9840    9858       1    9828    9834   -9846    9858       1
    9828    9834    9849    9867       1    9828    9837   -9852    9867       1
    9828    9837    9852    9873       1    9828    9837    9855    9876       1
   10017   10005   10014   10023       1   10017   10026  -10032   10023       1
   10014   10005   10017   10026       1   10014   10023  -10032   10026       1
   10008   10014   10005   10017       1   10008   10014   10023   10032       1
   10005   10014   10023   10032       1   10005   10017  -10026   10032       1
    9999    9981    9996   10005       1    9999   10008  -10014   10005       1
    9999   10008   10014   10023       1    9996    9981    9999   10008       1
    9996   10005  -10014   10008       1    9996   10005   10014   10023       1
    9996   10005   10017   10026       1    9984    9996    9981    9999       1
    9984    9996   10005   10014       1    9984    9996   10005   10017       1
    9981    9996   10005   10014       1    9981    9996   10005   10017       1
    9981    9999  -10008   10014       1    9975    9960    9981    9996       1
    9975    9960    9981    9999       1    9963    9945    9960    9975       1
    9963    9945    9960    9981       1    9963    9984   -9996    9981       1
    9963    9984    9996   10005       1    9960    9945    9963    9984       1
    9960    9981   -9996    9984       1    9960    9981    9996   10005       1
    9960    9981    9999   10008       1    9957    9942    9954    9966       1
    9957    9975    9960    9981       1    9954    9942    9957    9975       1
    9945    9936    9939    9948       1    9945    9936    9942    9954       1
    9945    9936    9942    9957       1    9945    9960   -9975    9957       1
    9945    9960    9981    9996       1    9945    9960    9981    9999       1
    9945    9963   -9984    9996       1    9942    9936    9939    9948       1
    9942    9936    9945    9960       1    9942    9936    9945    9963       1
    9942    9954   -9966    9948       1    9942    9957   -9975    9960       1
    9939    9936    9942    9954       1    9939    9936    9942    9957       1
    9939    9936    9945    9960       1    9939    9936    9945    9963       1
    9939    9948   -9966    9954       1    9936    9939    9948    9966       1
    9936    9942   -9954    9966       1    9936    9942    9957    9975       1
    9936    9945   -9960    9975       1    9936    9945    9960    9981       1
    9936    9945    9963    9984       1   10125   10113   10122   10131       1
   10125   10134  -10140   10131       1   10122   10113   10125   10134       1
   10122   10131  -10140   10134       1   10116   10122   10113   10125       1
   10116   10122   10131   10140       1   10113   10122   10131   10140       1
   10113   10125  -10134   10140       1   10107   10089   10104   10113       1
   10107   10116  -10122   10113       1   10107   10116   10122   10131       1
   10104   10089   10107   10116       1   10104   10113  -10122   10116       1
   10104   10113   10122   10131       1   10104   10113   10125   10134       1
   10092   10104   10089   10107       1   10092   10104   10113   10122       1
   10092   10104   10113   10125       1   10089   10104   10113   10122       1
   10089   10104   10113   10125       1   10089   10107  -10116   10122       1
   10083   10068   10089   10104       1   10083   10068   10089   10107       1
   10071   10053   10068   10083       1   10071   10053   10068   10089       1
   10071   10092  -10104   10089       1   10071   10092   10104   10113       1
   10068   10053   10071   10092       1   10068   10089  -10104   10092       1
   10068   10089   10104   10113       1   10068   10089   10107   10116       1
   10065   10050   10062   10074       1   10065   10083   10068   10089       1
   10062   10050   10065   10083       1   10053   10044   10047   10056       1
   10053   10044   10050   10062       1   10053   10044   10050   10065       1
   10053   10068  -10083   10065       1   10053   10068   10089   10104       1
   10053   10068   10089   10107       1   10053   10071  -10092   10104       1
   10050   10044   10047   10056       1   10050   10044   10053   10068       1
   10050   10044   10053   10071       1   10050   10062  -10074   10056       1
   10050   10065  -10083   10068       1   10047   10044   10050   10062       1
   10047   10044   10050   10065       1   10047   10044   10053   10068       1
   10047   10044   10053   10071       1   10047   10056  -10074   10062       1
   10044   10047   10056   10074       1   10044   10050  -10062   10074       1
   10044   10050   10065   10083       1   10044   10053  -10068   10083       1
   10044   10053   10068   10089       1   10044   10053   10071   10092       1
   10233   10221   10230   10239       1   10233   10242  -10248   10239       1
   10230   10221   10233   10242       1   10230   10239  -10248   10242       1
   10224   10230   10221   10233       1   10224   10230   10239   10248       1
   10221   10230   10239   10248       1   10221   10233  -10242   10248       1
   10215   10197   10212   10221       1   10215   10224  -10230   10221       1
   10215   10224   10230   10239       1   10212   10197   10215   10224       1
   10212   10221  -10230   10224       1   10212   10221   10230   10239       1
   10212   10221   10233   10242       1   10200   10212   10197   10215       1
   10200   10212   10221   10230       1   10200   10212   10221   10233       1
   10197   10212   10221   10230       1   10197   10212   10221   10233       1
   10197   10215  -10224   10230       1   10191   10176   10197   10212       1
   10191   10176   10197   10215       1   10179   10161   10176   10191       1
   10179   10161   10176   10197       1   10179   10200  -10212   10197       1
   10179   10200   10212   10221       1   10176   10161   10179   10200       1
   10176   10197  -10212   10200       1   10176   10197   10212   10221       1
   10176   10197   10215   10224       1   10173   10158   10170   10182       1
   10173   10191   10176   10197       1   10170   10158   10173   10191       1
   10161   10152   10155   10164       1   10161   10152   10158   10170       1
   10161   10152   10158   10173       1   10161   10176  -10191   10173       1
   10161   10176   10197   10212       1   10161   10176   10197   10215       1
   10161   10179  -10200   10212       1   10158   10152   10155   10164       1
   10158   10152   10161   10176       1   10158   10152   10161   10179       1
   10158   10170  -10182   10164       1   10158   10173  -10191   10176       1
   10155   10152   10158   10170       1   10155   10152   10158   10173       1
   10155   10152   10161   10176       1   10155   10152   10161   10179       1
   10155   10164  -10182   10170       1   10152   10155   10164   10182       1
   10152   10158  -10170   10182       1   10152   10158   10173   10191       1
   10152   10161  -10176   10191       1   10152   10161   10176   10197       1
   10152   10161   10179   10200       1   10341   10329   10338   10347       1
   10341   10350  -10356   10347       1   10338   10329   10341   10350       1
   10338   10347  -10356   10350       1   10332   10338   10329   10341       1
   10332   10338   10347   10356       1   10329   10338   10347   10356       1
   10329   10341  -10350   10356       1   10323   10305   10320   10329       1
   10323   10332  -10338   10329       1   10323   10332   10338   10347       1
   10320   10305   10323   10332       1   10320   10329  -10338   10332       1
   10320   10329   10338   10347       1   10320   10329   10341   10350       1
   10308   10320   10305   10323       1   10308   10320   10329   10338       1
   10308   10320   10329   10341       1   10305   10320   10329   10338       1
   10305   10320   10329   10341       1   10305   10323  -10332   10338       1
   10299   10284   10305   10320       1   10299   10284   10305   10323       1
   10287   10269   10284   10299       1   10287   10269   10284   10305       1
   10287   10308  -10320   10305       1   10287   10308   10320   10329       1
   10284   10269   10287   10308       1   10284   10305  -10320   10308       1
   10284   10305   10320   10329       1   10284   10305   10323   10332       1
   10281   10266   10278   10290       1   10281   10299   10284   10305       1
   10278   10266   10281   10299       1   10269   10260   10263   10272       1
   10269   10260   10266   10278       1   10269   10260   10266   10281       1
   10269   10284  -10299   10281       1   10269   10284   10305   10320       1
   10269   10284   10305   10323       1   10269   10287  -10308   10320       1
   10266   10260   10263   10272       1   10266   10260   10269   10284       1
   10266   10260   10269   10287       1   10266   10278  -10290   10272       1
   10266   10281  -10299   10284       1   10263   10260   10266   10278       1
   10263   10260   10266   10281       1   10263   10260   10269   10284       1
   10263   10260   10269   10287       1   10263   10272  -10290   10278       1
   10260   10263   10272   10290       1   10260   10266  -10278   10290       1
   10260   10266   10281   10299       1   10260   10269  -10284   10299       1
   10260   10269   10284   10305       1   10260   10269   10287   10308       1
   10449   10437   10446   10455       1   10449   10458  -10464   10455       1
   10446   10437   10449   10458       1   10446   10455  -10464   10458       1
   10440   10446   10437   10449       1   10440   10446   10455   10464       1
   10437   10446   10455   10464       1   10437   10449  -10458   10464       1
   10431   10413   10428   10437       1   10431   10440  -10446   10437       1
   10431   10440   10446   10455       1   10428   10413   10431   10440       1
   10428   10437  -10446   10440       1   10428   10437   10446   10455       1
   10428   10437   10449   10458       1   10416   10428   10413   10431       1
   10416   10428   10437   10446       1   10416   10428   10437   10449       1
   10413   10428   10437   10446       1   10413   10428   10437   10449       1
   10413   10431  -10440   10446       1   10407   10392   10413   10428       1
   10407   10392   10413   10431       1   10395   10377   10392   10407       1
   10395   10377   10392   10413       1   10395   10416  -10428   10413       1
   10395   10416   10428   10437       1   10392   10377   10395   10416       1
   10392   10413  -10428   10416       1   10392   10413   10428   10437       1
   10392   10413   10431   10440       1   10389   10374   10386   10398       1
   10389   10407   10392   10413       1   10386   10374   10389   10407       1
   10377   10368   10371   10380       1   10377   10368   10374   10386       1
   10377   10368   10374   10389       1   10377   10392  -10407   10389       1
   10377   10392   10413   10428       1   10377   10392   10413   10431       1
   10377   10395  -10416   10428       1   10374   10368   10371   10380       1
   10374   10368   10377   10392       1   10374   10368   10377   10395       1
   10374   10386  -10398   10380       1   10374   10389  -10407   10392       1
   10371   10368   10374   10386       1   10371   10368   10374   10389       1
   10371   10368   10377   10392       1   10371   10368   10377   10395       1
   10371   10380  -10398   10386       1   10368   10371   10380   10398       1
   10368   10374  -10386   10398       1   10368   10374   10389   10407       1
   10368   10377  -10392   10407       1   10368   10377   10392   10413       1
   10368   10377   10395   10416       1   10557   10545   10554   10563       1
   10557   10566  -10572   10563       1   10554   10545   10557   10566       1
   10554   10563  -10572   10566       1   10548   10554   10545   10557       1
   10548   10554   10563   10572       1   10545   10554   10563   10572       1
   10545   10557  -10566   10572       1   10539   10521   10536   10545       1
   10539   10548  -10554   10545       1   10539   10548   10554   10563       1
   10536   10521   10539   10548       1   10536   10545  -10554   10548       1
   10536   10545   10554   10563       1   10536   10545   10557   10566       1
   10524   10536   10521   10539       1   10524   10536   10545   10554       1
   10524   10536   10545   10557       1   10521   10536   10545   10554       1
   10521   10536   10545   10557       1   10521   10539  -10548   10554       1
   10515   10500   10521   10536       1   10515   10500   10521   10539       1
   10503   10485   10500   10515       1   10503   10485   10500   10521       1
   10503   10524  -10536   10521       1   10503   10524   10536   10545       1
   10500   10485   10503   10524       1   10500   10521  -10536   10524       1
   10500   10521   10536   10545       1   10500   10521   10539   10548       1
   10497   10482   10494   10506       1   10497   10515   10500   10521       1
   10494   10482   10497   10515       1   10485   10476   10479   10488       1
   10485   10476   10482   10494       1   10485   10476   10482   10497       1
   10485   10500  -10515   10497       1   10485   10500   10521   10536       1
   10485   10500   10521   10539       1   10485   10503  -10524   10536       1
   10482   10476   10479   10488       1   10482   10476   10485   10500       1
   10482   10476   10485   10503       1   10482   10494  -10506   10488       1
   10482   10497  -10515   10500       1   10479   10476   10482   10494       1
   10479   10476   10482   10497       1   10479   10476   10485   10500       1
   10479   10476   10485   10503       1   10479   10488  -10506   10494       1
   10476   10479   10488   10506       1   10476   10482  -10494   10506       1
   10476   10482   10497   10515       1   10476   10485  -10500   10515       1
   10476   10485   10500   10521       1   10476   10485   10503   10524       1
   10665   10653   10662   10671       1   10665   10674  -10680   10671       1
   10662   10653   10665   10674       1   10662   10671  -10680   10674       1
   10656   10662   10653   10665       1   10656   10662   10671   10680       1
   10653   10662   10671   10680       1   10653   10665  -10674   10680       1
   10647   10629   10644   10653       1   10647   10656  -10662   10653       1
   10647   10656   10662   10671       1   10644   10629   10647   10656       1
   10644   10653  -10662   10656       1   10644   10653   10662   10671       1
   10644   10653   10665   10674       1   10632   10644   10629   10647       1
   10632   10644   10653   10662       1   10632   10644   10653   10665       1
   10629   10644   10653   10662       1   10629   10644   10653   10665       1
   10629   10647  -10656   10662       1   10623   10608   10629   10644       1
   10623   10608   10629   10647       1   10611   10593   10608   10623       1
   10611   10593   10608   10629       1   10611   10632  -10644   10629       1
   10611   10632   10644   10653       1   10608   10593   10611   10632       1
   10608   10629  -10644   10632       1   10608   10629   10644   10653       1
   10608   10629   10647   10656       1   10605   10590   10602   10614       1
   10605   10623   10608   10629       1   10602   10590   10605   10623       1
   10593   10584   10587   10596       1   10593   10584   10590   10602       1
   10593   10584   10590   10605       1   10593   10608  -10623   10605       1
   10593   10608   10629   10644       1   10593   10608   10629   10647       1
   10593   10611  -10632   10644       1   10590   10584   10587   10596       1
   10590   10584   10593   10608       1   10590   10584   10593   10611       1
   10590   10602  -10614   10596       1   10590   10605  -10623   10608       1
   10587   10584   10590   10602       1   10587   10584   10590   10605       1
   10587   10584   10593   10608       1   10587   10584   10593   10611       1
   10587   10596  -10614   10602       1   10584   10587   10596   10614       1
   10584   10590  -10602   10614       1   10584   10590   10605   10623       1
   10584   10593  -10608   10623       1   10584   10593   10608   10629       1
   10584   10593   10611   10632       1   10773   10761   10770   10779       1
   10773   10782  -10788   10779       1   10770   10761   10773   10782       1
   10770   10779  -10788   10782       1   10764   10770   10761   10773       1
   10764   10770   10779   10788       1   10761   10770   10779   10788       1
   10761   10773  -10782   10788       1   10755   10737   10752   10761       1
   10755   10764  -10770   10761       1   10755   10764   10770   10779       1
   10752   10737   10755   10764       1   10752   10761  -10770   10764       1
   10752   10761   10770   10779       1   10752   10761   10773   10782       1
   10740   10752   10737   10755       1   10740   10752   10761   10770       1
   10740   10752   10761   10773       1   10737   10752   10761   10770       1
   10737   10752   10761   10773       1   10737   10755  -10764   10770       1
   10731   10716   10737   10752       1   10731   10716   10737   10755       1
   10719   10701   10716   10731       1   10719   10701   10716   10737       1
   10719   10740  -10752   10737       1   10719   10740   10752   10761       1
   10716   10701   10719   10740       1   10716   10737  -10752   10740       1
   10716   10737   10752   10761       1   10716   10737   10755   10764       1
   10713   10698   10710   10722       1   10713   10731   10716   10737       1
   10710   10698   10713   10731       1   10701   10692   10695   10704       1
   10701   10692   10698   10710       1   10701   10692   10698   10713       1
   10701   10716  -10731   10713       1   10701   10716   10737   10752       1
   10701   10716   10737   10755       1   10701   10719  -10740   10752       1
   10698   10692   10695   10704       1   10698   10692   10701   10716       1
   10698   10692   10701   10719       1   10698   10710  -10722   10704       1
   10698   10713  -10731   10716       1   10695   10692   10698   10710       1
   10695   10692   10698   10713       1   10695   10692   10701   10716       1
   10695   10692   10701   10719       1   10695   10704  -10722   10710       1
   10692   10695   10704   10722       1   10692   10698  -10710   10722       1
   10692   10698   10713   10731       1   10692   10701  -10716   10731       1
   10692   10701   10716   10737       1   10692   10701   10719   10740       1
   10881   10869   10878   10887       1   10881   10890  -10896   10887       1
   10878   10869   10881   10890       1   10878   10887  -10896   10890       1
   10872   10878   10869   10881       1   10872   10878   10887   10896       1
   10869   10878   10887   10896       1   10869   10881  -10890   10896       1
   10863   10845   10860   10869       1   10863   10872  -10878   10869       1
   10863   10872   10878   10887       1   10860   10845   10863   10872       1
   10860   10869  -10878   10872       1   10860   10869   10878   10887       1
   10860   10869   10881   10890       1   10848   10860   10845   10863       1
   10848   10860   10869   10878       1   10848   10860   10869   10881       1
   10845   10860   10869   10878       1   10845   10860   10869   10881       1
   10845   10863  -10872   10878       1   10839   10824   10845   10860       1
   10839   10824   10845   10863       1   10827   10809   10824   10839       1
   10827   10809   10824   10845       1   10827   10848  -10860   10845       1
   10827   10848   10860   10869       1   10824   10809   10827   10848       1
   10824   10845  -10860   10848       1   10824   10845   10860   10869       1
   10824   10845   10863   10872       1   10821   10806   10818   10830       1
   10821   10839   10824   10845       1   10818   10806   10821   10839       1
   10809   10800   10803   10812       1   10809   10800   10806   10818       1
   10809   10800   10806   10821       1   10809   10824  -10839   10821       1
   10809   10824   10845   10860       1   10809   10824   10845   10863       1
   10809   10827  -10848   10860       1   10806   10800   10803   10812       1
   10806   10800   10809   10824       1   10806   10800   10809   10827       1
   10806   10818  -10830   10812       1   10806   10821  -10839   10824       1
   10803   10800   10806   10818       1   10803   10800   10806   10821       1
   10803   10800   10809   10824       1   10803   10800   10809   10827       1
   10803   10812  -10830   10818       1   10800   10803   10812   10830       1
   10800   10806  -10818   10830       1   10800   10806   10821   10839       1
   10800   10809  -10824   10839       1   10800   10809   10824   10845       1
   10800   10809   10827   10848       1   10989   10977   10986   10995       1
   10989   10998  -11004   10995       1   10986   10977   10989   10998       1
   10986   10995  -11004   10998       1   10980   10986   10977   10989       1
   10980   10986   10995   11004       1   10977   10986   10995   11004       1
   10977   10989  -10998   11004       1   10971   10953   10968   10977       1
   10971   10980  -10986   10977       1   10971   10980   10986   10995       1
   10968   10953   10971   10980       1   10968   10977  -10986   10980       1
   10968   10977   10986   10995       1   10968   10977   10989   10998       1
   10956   10968   10953   10971       1   10956   10968   10977   10986       1
   10956   10968   10977   10989       1   10953   10968   10977   10986       1
   10953   10968   10977   10989       1   10953   10971  -10980   10986       1
   10947   10932   10953   10968       1   10947   10932   10953   10971       1
   10935   10917   10932   10947       1   10935   10917   10932   10953       1
   10935   10956  -10968   10953       1   10935   10956   10968   10977       1
   10932   10917   10935   10956       1   10932   10953  -10968   10956       1
   10932   10953   10968   10977       1   10932   10953   10971   10980       1
   10929   10914   10926   10938       1   10929   10947   10932   10953       1
   10926   10914   10929   10947       1   10917   10908   10911   10920       1
   10917   10908   10914   10926       1   10917   10908   10914   10929       1
   10917   10932  -10947   10929       1   10917   10932   10953   10968       1
   10917   10932   10953   10971       1   10917   10935  -10956   10968       1
   10914   10908   10911   10920       1   10914   10908   10917   10932       1
   10914   10908   10917   10935       1   10914   10926  -10938   10920       1
   10914   10929  -10947   10932       1   10911   10908   10914   10926       1
   10911   10908   10914   10929       1   10911   10908   10917   10932       1
   10911   10908   10917   10935       1   10911   10920  -10938   10926       1
   10908   10911   10920   10938       1   10908   10914  -10926   10938       1
   10908   10914   10929   10947       1   10908   10917  -10932   10947       1
   10908   10917   10932   10953       1   10908   10917   10935   10956       1
   11097   11085   11094   11103       1   11097   11106  -11112   11103       1
   11094   11085   11097   11106       1   11094   11103  -11112   11106       1
   11088   11094   11085   11097       1   11088   11094   11103   11112       1
   11085   11094   11103   11112       1   11085   11097  -11106   11112       1
   11079   11061   11076   11085       1   11079   11088  -11094   11085       1
   11079   11088   11094   11103       1   11076   11061   11079   11088       1
   11076   11085  -11094   11088       1   11076   11085   11094   11103       1
   11076   11085   11097   11106       1   11064   11076   11061   11079       1
   11064   11076   11085   11094       1   11064   11076   11085   11097       1
   11061   11076   11085   11094       1   11061   11076   11085   11097       1
   11061   11079  -11088   11094       1   11055   11040   11061   11076       1
   11055   11040   11061   11079       1   11043   11025   11040   11055       1
   11043   11025   11040   11061       1   11043   11064  -11076   11061       1
   11043   11064   11076   11085       1   11040   11025   11043   11064       1
   11040   11061  -11076   11064       1   11040   11061   11076   11085       1
   11040   11061   11079   11088       1   11037   11022   11034   11046       1
   11037   11055   11040   11061       1   11034   11022   11037   11055       1
   11025   11016   11019   11028       1   11025   11016   11022   11034       1
   11025   11016   11022   11037       1   11025   11040  -11055   11037       1
   11025   11040   11061   11076       1   11025   11040   11061   11079       1
   11025   11043  -11064   11076       1   11022   11016   11019   11028       1
   11022   11016   11025   11040       1   11022   11016   11025   11043       1
   11022   11034  -11046   11028       1   11022   11037  -11055   11040       1
   11019   11016   11022   11034       1   11019   11016   11022   11037       1
   11019   11016   11025   11040       1   11019   11016   11025   11043       1
   11019   11028  -11046   11034       1   11016   11019   11028   11046       1
   11016   11022  -11034   11046       1   11016   11022   11037   11055       1
   11016   11025  -11040   11055       1   11016   11025   11040   11061       1
   11016   11025   11043   11064       1   11205   11193   11202   11211       1
   11205   11214  -11220   11211       1   11202   11193   11205   11214       1
   11202   11211  -11220   11214       1   11196   11202   11193   11205       1
   11196   11202   11211   11220       1   11193   11202   11211   11220       1
   11193   11205  -11214   11220       1   11187   11169   11184   11193       1
   11187   11196  -11202   11193       1   11187   11196   11202   11211       1
   11184   11169   11187   11196       1   11184   11193  -11202   11196       1
   11184   11193   11202   11211       1   11184   11193   11205   11214       1
   11172   11184   11169   11187       1   11172   11184   11193   11202       1
   11172   11184   11193   11205       1   11169   11184   11193   11202       1
   11169   11184   11193   11205       1   11169   11187  -11196   11202       1
   11163   11148   11169   11184       1   11163   11148   11169   11187       1
   11151   11133   11148   11163       1   11151   11133   11148   11169       1
   11151   11172  -11184   11169       1   11151   11172   11184   11193       1
   11148   11133   11151   11172       1   11148   11169  -11184   11172       1
   11148   11169   11184   11193       1   11148   11169   11187   11196       1
   11145   11130   11142   11154       1   11145   11163   11148   11169       1
   11142   11130   11145   11163       1   11133   11124   11127   11136       1
   11133   11124   11130   11142       1   11133   11124   11130   11145       1
   11133   11148  -11163   11145       1   11133   11148   11169   11184       1
   11133   11148   11169   11187       1   11133   11151  -11172   11184       1
   11130   11124   11127   11136       1   11130   11124   11133   11148       1
   11130   11124   11133   11151       1   11130   11142  -11154   11136       1
   11130   11145  -11163   11148       1   11127   11124   11130   11142       1
   11127   11124   11130   11145       1   11127   11124   11133   11148       1
   11127   11124   11133   11151       1   11127   11136  -11154   11142       1
   11124   11127   11136   11154       1   11124   11130  -11142   11154       1
   11124   11130   11145   11163       1   11124   11133  -11148   11163       1
   11124   11133   11148   11169       1   11124   11133   11151   11172       1
   11313   11301   11310   11319       1   11313   11322  -11328   11319       1
   11310   11301   11313   11322       1   11310   11319  -11328   11322       1
   11304   11310   11301   11313       1   11304   11310   11319   11328       1
   11301   11310   11319   11328       1   11301   11313  -11322   11328       1
   11295   11277   11292   11301       1   11295   11304  -11310   11301       1
   11295   11304   11310   11319       1   11292   11277   11295   11304       1
   11292   11301  -11310   11304       1   11292   11301   11310   11319       1
   11292   11301   11313   11322       1   11280   11292   11277   11295       1
   11280   11292   11301   11310       1   11280   11292   11301   11313       1
   11277   11292   11301   11310       1   11277   11292   11301   11313       1
   11277   11295  -11304   11310       1   11271   11256   11277   11292       1
   11271   11256   11277   11295       1   11259   11241   11256   11271       1
   11259   11241   11256   11277       1   11259   11280  -11292   11277       1
   11259   11280   11292   11301       1   11256   11241   11259   11280       1
   11256   11277  -11292   11280       1   11256   11277   11292   11301       1
   11256   11277   11295   11304       1   11253   11238   11250   11262       1
   11253   11271   11256   11277       1   11250   11238   11253   11271       1
   11241   11232   11235   11244       1   11241   11232   11238   11250       1
   11241   11232   11238   11253       1   11241   11256  -11271   11253       1
   11241   11256   11277   11292       1   11241   11256   11277   11295       1
   11241   11259  -11280   11292       1   11238   11232   11235   11244       1
   11238   11232   11241   11256       1   11238   11232   11241   11259       1
   11238   11250  -11262   11244       1   11238   11253  -11271   11256       1
   11235   11232   11238   11250       1   11235   11232   11238   11253       1
   11235   11232   11241   11256       1   11235   11232   11241   11259       1
   11235   11244  -11262   11250       1   11232   11235   11244   11262       1
   11232   11238  -11250   11262       1   11232   11238   11253   11271       1
   11232   11241  -11256   11271       1   11232   11241   11256   11277       1
   11232   11241   11259   11280       1   11421   11409   11418   11427       1
   11421   11430  -11436   11427       1   11418   11409   11421   11430       1
   11418   11427  -11436   11430       1   11412   11418   11409   11421       1
   11412   11418   11427   11436       1   11409   11418   11427   11436       1
   11409   11421  -11430   11436       1   11403   11385   11400   11409       1
   11403   11412  -11418   11409       1   11403   11412   11418   11427       1
   11400   11385   11403   11412       1   11400   11409  -11418   11412       1
   11400   11409   11418   11427       1   11400   11409   11421   11430       1
   11388   11400   11385   11403       1   11388   11400   11409   11418       1
   11388   11400   11409   11421       1   11385   11400   11409   11418       1
   11385   11400   11409   11421       1   11385   11403  -11412   11418       1
   11379   11364   11385   11400       1   11379   11364   11385   11403       1
   11367   11349   11364   11379       1   11367   11349   11364   11385       1
   11367   11388  -11400   11385       1   11367   11388   11400   11409       1
   11364   11349   11367   11388       1   11364   11385  -11400   11388       1
   11364   11385   11400   11409       1   11364   11385   11403   11412       1
   11361   11346   11358   11370       1   11361   11379   11364   11385       1
   11358   11346   11361   11379       1   11349   11340   11343   11352       1
   11349   11340   11346   11358       1   11349   11340   11346   11361       1
   11349   11364  -11379   11361       1   11349   11364   11385   11400       1
   11349   11364   11385   11403       1   11349   11367  -11388   11400       1
   11346   11340   11343   11352       1   11346   11340   11349   11364       1
   11346   11340   11349   11367       1   11346   11358  -11370   11352       1
   11346   11361  -11379   11364       1   11343   11340   11346   11358       1
   11343   11340   11346   11361       1   11343   11340   11349   11364       1
   11343   11340   11349   11367       1   11343   11352  -11370   11358       1
   11340   11343   11352   11370       1   11340   11346  -11358   11370       1
   11340   11346   11361   11379       1   11340   11349  -11364   11379       1
   11340   11349   11364   11385       1   11340   11349   11367   11388       1
   11529   11517   11526   11535       1   11529   11538  -11544   11535       1
   11526   11517   11529   11538       1   11526   11535  -11544   11538       1
   11520   11526   11517   11529       1   11520   11526   11535   11544       1
   11517   11526   11535   11544       1   11517   11529  -11538   11544       1
   11511   11493   11508   11517       1   11511   11520  -11526   11517       1
   11511   11520   11526   11535       1   11508   11493   11511   11520       1
   11508   11517  -11526   11520       1   11508   11517   11526   11535       1
   11508   11517   11529   11538       1   11496   11508   11493   11511       1
   11496   11508   11517   11526       1   11496   11508   11517   11529       1
   11493   11508   11517   11526       1   11493   11508   11517   11529       1
   11493   11511  -11520   11526       1   11487   11472   11493   11508       1
   11487   11472   11493   11511       1   11475   11457   11472   11487       1
   11475   11457   11472   11493       1   11475   11496  -11508   11493       1
   11475   11496   11508   11517       1   11472   11457   11475   11496       1
   11472   11493  -11508   11496       1   11472   11493   11508   11517       1
   11472   11493   11511   11520       1   11469   11454   11466   11478       1
   11469   11487   11472   11493       1   11466   11454   11469   11487       1
   11457   11448   11451   11460       1   11457   11448   11454   11466       1
   11457   11448   11454   11469       1   11457   11472  -11487   11469       1
   11457   11472   11493   11508       1   11457   11472   11493   11511       1
   11457   11475  -11496   11508       1   11454   11448   11451   11460       1
   11454   11448   11457   11472       1   11454   11448   11457   11475       1
   11454   11466  -11478   11460       1   11454   11469  -11487   11472       1
   11451   11448   11454   11466       1   11451   11448   11454   11469       1
   11451   11448   11457   11472       1   11451   11448   11457   11475       1
   11451   11460  -11478   11466       1   11448   11451   11460   11478       1
   11448   11454  -11466   11478       1   11448   11454   11469   11487       1
   11448   11457  -11472   11487       1   11448   11457   11472   11493       1
   11448   11457   11475   11496       1   11637   11625   11634   11643       1
   11637   11646  -11652   11643       1   11634   11625   11637   11646       1
   11634   11643  -11652   11646       1   11628   11634   11625   11637       1
   11628   11634   11643   11652       1   11625   11634   11643   11652       1
   11625   11637  -11646   11652       1   11619   11601   11616   11625       1
   11619   11628  -11634   11625       1   11619   11628   11634   11643       1
   11616   11601   11619   11628       1   11616   11625  -11634   11628       1
   11616   11625   11634   11643       1   11616   11625   11637   11646       1
   11604   11616   11601   11619       1   11604   11616   11625   11634       1
   11604   11616   11625   11637       1   11601   11616   11625   11634       1
   11601   11616   11625   11637       1   11601   11619  -11628   11634       1
   11595   11580   11601   11616       1   11595   11580   11601   11619       1
   11583   11565   11580   11595       1   11583   11565   11580   11601       1
   11583   11604  -11616   11601       1   11583   11604   11616   11625       1
   11580   11565   11583   11604       1   11580   11601  -11616   11604       1
   11580   11601   11616   11625       1   11580   11601   11619   11628       1
   11577   11562   11574   11586       1   11577   11595   11580   11601       1
   11574   11562   11577   11595       1   11565   11556   11559   11568       1
   11565   11556   11562   11574       1   11565   11556   11562   11577       1
   11565   11580  -11595   11577       1   11565   11580   11601   11616       1
   11565   11580   11601   11619       1   11565   11583  -11604   11616       1
   11562   11556   11559   11568       1   11562   11556   11565   11580       1
   11562   11556   11565   11583       1   11562   11574  -11586   11568       1
   11562   11577  -11595   11580       1   11559   11556   11562   11574       1
   11559   11556   11562   11577       1   11559   11556   11565   11580       1
   11559   11556   11565   11583       1   11559   11568  -11586   11574       1
   11556   11559   11568   11586       1   11556   11562  -11574   11586       1
   11556   11562   11577   11595       1   11556   11565  -11580   11595       1
   11556   11565   11580   11601       1   11556   11565   11583   11604       1
   11745   11733   11742   11751       1   11745   11754  -11760   11751       1
   11742   11733   11745   11754       1   11742   11751  -11760   11754       1
   11736   11742   11733   11745       1   11736   11742   11751   11760       1
   11733   11742   11751   11760       1   11733   11745  -11754   11760       1
   11727   11709   11724   11733       1   11727   11736  -11742   11733       1
   11727   11736   11742   11751       1   11724   11709   11727   11736       1
   11724   11733  -11742   11736       1   11724   11733   11742   11751       1
   11724   11733   11745   11754       1   11712   11724   11709   11727       1
   11712   11724   11733   11742       1   11712   11724   11733   11745       1
   11709   11724   11733   11742       1   11709   11724   11733   11745       1
   11709   11727  -11736   11742       1   11703   11688   11709   11724       1
   11703   11688   11709   11727       1   11691   11673   11688   11703       1
   11691   11673   11688   11709       1   11691   11712  -11724   11709       1
   11691   11712   11724   11733       1   11688   11673   11691   11712       1
   11688   11709  -11724   11712       1   11688   11709   11724   11733       1
   11688   11709   11727   11736       1   11685   11670   11682   11694       1
   11685   11703   11688   11709       1   11682   11670   11685   11703       1
   11673   11664   11667   11676       1   11673   11664   11670   11682       1
   11673   11664   11670   11685       1   11673   11688  -11703   11685       1
   11673   11688   11709   11724       1   11673   11688   11709   11727       1
   11673   11691  -11712   11724       1   11670   11664   11667   11676       1
   11670   11664   11673   11688       1   11670   11664   11673   11691       1
   11670   11682  -11694   11676       1   11670   11685  -11703   11688       1
   11667   11664   11670   11682       1   11667   11664   11670   11685       1
   11667   11664   11673   11688       1   11667   11664   11673   11691       1
   11667   11676  -11694   11682       1   11664   11667   11676   11694       1
   11664   11670  -11682   11694       1   11664   11670   11685   11703       1
   11664   11673  -11688   11703       1   11664   11673   11688   11709       1
   11664   11673   11691   11712       1   11853   11841   11850   11859       1
   11853   11862  -11868   11859       1   11850   11841   11853   11862       1
   11850   11859  -11868   11862       1   11844   11850   11841   11853       1
   11844   11850   11859   11868       1   11841   11850   11859   11868       1
   11841   11853  -11862   11868       1   11835   11817   11832   11841       1
   11835   11844  -11850   11841       1   11835   11844   11850   11859       1
   11832   11817   11835   11844       1   11832   11841  -11850   11844       1
   11832   11841   11850   11859       1   11832   11841   11853   11862       1
   11820   11832   11817   11835       1   11820   11832   11841   11850       1
   11820   11832   11841   11853       1   11817   11832   11841   11850       1
   11817   11832   11841   11853       1   11817   11835  -11844   11850       1
   11811   11796   11817   11832       1   11811   11796   11817   11835       1
   11799   11781   11796   11811       1   11799   11781   11796   11817       1
   11799   11820  -11832   11817       1   11799   11820   11832   11841       1
   11796   11781   11799   11820       1   11796   11817  -11832   11820       1
   11796   11817   11832   11841       1   11796   11817   11835   11844       1
   11793   11778   11790   11802       1   11793   11811   11796   11817       1
   11790   11778   11793   11811       1   11781   11772   11775   11784       1
   11781   11772   11778   11790       1   11781   11772   11778   11793       1
   11781   11796  -11811   11793       1   11781   11796   11817   11832       1
   11781   11796   11817   11835       1   11781   11799  -11820   11832       1
   11778   11772   11775   11784       1   11778   11772   11781   11796       1
   11778   11772   11781   11799       1   11778   11790  -11802   11784       1
   11778   11793  -11811   11796       1   11775   11772   11778   11790       1
   11775   11772   11778   11793       1   11775   11772   11781   11796       1
   11775   11772   11781   11799       1   11775   11784  -11802   11790       1
   11772   11775   11784   11802       1   11772   11778  -11790   11802       1
   11772   11778   11793   11811       1   11772   11781  -11796   11811       1
   11772   11781   11796   11817       1   11772   11781   11799   11820       1
   11961   11949   11958   11967       1   11961   11970  -11976   11967       1
   11958   11949   11961   11970       1   11958   11967  -11976   11970       1
   11952   11958   11949   11961       1   11952   11958   11967   11976       1
   11949   11958   11967   11976       1   11949   11961  -11970   11976       1
   11943   11925   11940   11949       1   11943   11952  -11958   11949       1
   11943   11952   11958   11967       1   11940   11925   11943   11952       1
   11940   11949  -11958   11952       1   11940   11949   11958   11967       1
   11940   11949   11961   11970       1   11928   11940   11925   11943       1
   11928   11940   11949   11958       1   11928   11940   11949   11961       1
   11925   11940   11949   11958       1   11925   11940   11949   11961       1
   11925   11943  -11952   11958       1   11919   11904   11925   11940       1
   11919   11904   11925   11943       1   11907   11889   11904   11919       1
   11907   11889   11904   11925       1   11907   11928  -11940   11925       1
   11907   11928   11940   11949       1   11904   11889   11907   11928       1
   11904   11925  -11940   11928       1   11904   11925   11940   11949       1
   11904   11925   11943   11952       1   11901   11886   11898   11910       1
   11901   11919   11904   11925       1   11898   11886   11901   11919       1
   11889   11880   11883   11892       1   11889   11880   11886   11898       1
   11889   11880   11886   11901       1   11889   11904  -11919   11901       1
   11889   11904   11925   11940       1   11889   11904   11925   11943       1
   11889   11907  -11928   11940       1   11886   11880   11883   11892       1
   11886   11880   11889   11904       1   11886   11880   11889   11907       1
   11886   11898  -11910   11892       1   11886   11901  -11919   11904       1
   11883   11880   11886   11898       1   11883   11880   11886   11901       1
   11883   11880   11889   11904       1   11883   11880   11889   11907       1
   11883   11892  -11910   11898       1   11880   11883   11892   11910       1
   11880   11886  -11898   11910       1   11880   11886   11901   11919       1
   11880   11889  -11904   11919       1   11880   11889   11904   11925       1
   11880   11889   11907   11928       1   12069   12057   12066   12075       1
   12069   12078  -12084   12075       1   12066   12057   12069   12078       1
   12066   12075  -12084   12078       1   12060   12066   12057   12069       1
   12060   12066   12075   12084       1   12057   12066   12075   12084       1
   12057   12069  -12078   12084       1   12051   12033   12048   12057       1
   12051   12060  -12066   12057       1   12051   12060   12066   12075       1
   12048   12033   12051   12060       1   12048   12057  -12066   12060       1
   12048   12057   12066   12075       1   12048   12057   12069   12078       1
   12036   12048   12033   12051       1   12036   12048   12057   12066       1
   12036   12048   12057   12069       1   12033   12048   12057   12066       1
   12033   12048   12057   12069       1   12033   12051  -12060   12066       1
   12027   12012   12033   12048       1   12027   12012   12033   12051       1
   12015   11997   12012   12027       1   12015   11997   12012   12033       1
   12015   12036  -12048   12033       1   12015   12036   12048   12057       1
   12012   11997   12015   12036       1   12012   12033  -12048   12036       1
   12012   12033   12048   12057       1   12012   12033   12051   12060       1
   12009   11994   12006   12018       1   12009   12027   12012   12033       1
   12006   11994   12009   12027       1   11997   11988   11991   12000       1
   11997   11988   11994   12006       1   11997   11988   11994   12009       1
   11997   12012  -12027   12009       1   11997   12012   12033   12048       1
   11997   12012   12033   12051       1   11997   12015  -12036   12048       1
   11994   11988   11991   12000       1   11994   11988   11997   12012       1
   11994   11988   11997   12015       1   11994   12006  -12018   12000       1
   11994   12009  -12027   12012       1   11991   11988   11994   12006       1
   11991   11988   11994   12009       1   11991   11988   11997   12012       1
   11991   11988   11997   12015       1   11991   12000  -12018   12006       1
   11988   11991   12000   12018       1   11988   11994  -12006   12018       1
   11988   11994   12009   12027       1   11988   11997  -12012   12027       1
   11988   11997   12012   12033       1   11988   11997   12015   12036       1
   12177   12165   12174   12183       1   12177   12186  -12192   12183       1
   12174   12165   12177   12186       1   12174   12183  -12192   12186       1
   12168   12174   12165   12177       1   12168   12174   12183   12192       1
   12165   12174   12183   12192       1   12165   12177  -12186   12192       1
   12159   12141   12156   12165       1   12159   12168  -12174   12165       1
   12159   12168   12174   12183       1   12156   12141   12159   12168       1
   12156   12165  -12174   12168       1   12156   12165   12174   12183       1
   12156   12165   12177   12186       1   12144   12156   12141   12159       1
   12144   12156   12165   12174       1   12144   12156   12165   12177       1
   12141   12156   12165   12174       1   12141   12156   12165   12177       1
   12141   12159  -12168   12174       1   12135   12120   12141   12156       1
   12135   12120   12141   12159       1   12123   12105   12120   12135       1
   12123   12105   12120   12141       1   12123   12144  -12156   12141       1
   12123   12144   12156   12165       1   12120   12105   12123   12144       1
   12120   12141  -12156   12144       1   12120   12141   12156   12165       1
   12120   12141   12159   12168       1   12117   12102   12114   12126       1
   12117   12135   12120   12141       1   12114   12102   12117   12135       1
   12105   12096   12099   12108       1   12105   12096   12102   12114       1
   12105   12096   12102   12117       1   12105   12120  -12135   12117       1
   12105   12120   12141   12156       1   12105   12120   12141   12159       1
   12105   12123  -12144   12156       1   12102   12096   12099   12108       1
   12102   12096   12105   12120       1   12102   12096   12105   12123       1
   12102   12114  -12126   12108       1   12102   12117  -12135   12120       1
   12099   12096   12102   12114       1   12099   12096   12102   12117       1
   12099   12096   12105   12120       1   12099   12096   12105   12123       1
   12099   12108  -12126   12114       1   12096   12099   12108   12126       1
   12096   12102  -12114   12126       1   12096   12102   12117   12135       1
   12096   12105  -12120   12135       1   12096   12105   12120   12141       1
   12096   12105   12123   12144       1   12285   12273   12282   12291       1
   12285   12294  -12300   12291       1   12282   12273   12285   12294       1
   12282   12291  -12300   12294       1   12276   12282   12273   12285       1
   12276   12282   12291   12300       1   12273   12282   12291   12300       1
   12273   12285  -12294   12300       1   12267   12249   12264   12273       1
   12267   12276  -12282   12273       1   12267   12276   12282   12291       1
   12264   12249   12267   12276       1   12264   12273  -12282   12276       1
   12264   12273   12282   12291       1   12264   12273   12285   12294       1
   12252   12264   12249   12267       1   12252   12264   12273   12282       1
   12252   12264   12273   12285       1   12249   12264   12273   12282       1
   12249   12264   12273   12285       1   12249   12267  -12276   12282       1
   12243   12228   12249   12264       1   12243   12228   12249   12267       1
   12231   12213   12228   12243       1   12231   12213   12228   12249       1
   12231   12252  -12264   12249       1   12231   12252   12264   12273       1
   12228   12213   12231   12252       1   12228   12249  -12264   12252       1
   12228   12249   12264   12273       1   12228   12249   12267   12276       1
   12225   12210   12222   12234       1   12225   12243   12228   12249       1
   12222   12210   12225   12243       1   12213   12204   12207   12216       1
   12213   12204   12210   12222       1   12213   12204   12210   12225       1
   12213   12228  -12243   12225       1   12213   12228   12249   12264       1
   12213   12228   12249   12267       1   12213   12231  -12252   12264       1
   12210   12204   12207   12216       1   12210   12204   12213   12228       1
   12210   12204   12213   12231       1   12210   12222  -12234   12216       1
   12210   12225  -12243   12228       1   12207   12204   12210   12222       1
   12207   12204   12210   12225       1   12207   12204   12213   12228       1
   12207   12204   12213   12231       1   12207   12216  -12234   12222       1
   12204   12207   12216   12234       1   12204   12210  -12222   12234       1
   12204   12210   12225   12243       1   12204   12213  -12228   12243       1
   12204   12213   12228   12249       1   12204   12213   12231   12252       1
   12393   12381   12390   12399       1   12393   12402  -12408   12399       1
   12390   12381   12393   12402       1   12390   12399  -12408   12402       1
   12384   12390   12381   12393       1   12384   12390   12399   12408       1
   12381   12390   12399   12408       1   12381   12393  -12402   12408       1
   12375   12357   12372   12381       1   12375   12384  -12390   12381       1
   12375   12384   12390   12399       1   12372   12357   12375   12384       1
   12372   12381  -12390   12384       1   12372   12381   12390   12399       1
   12372   12381   12393   12402       1   12360   12372   12357   12375       1
   12360   12372   12381   12390       1   12360   12372   12381   12393       1
   12357   12372   12381   12390       1   12357   12372   12381   12393       1
   12357   12375  -12384   12390       1   12351   12336   12357   12372       1
   12351   12336   12357   12375       1   12339   12321   12336   12351       1
   12339   12321   12336   12357       1   12339   12360  -12372   12357       1
   12339   12360   12372   12381       1   12336   12321   12339   12360       1
   12336   12357  -12372   12360       1   12336   12357   12372   12381       1
   12336   12357   12375   12384       1   12333   12318   12330   12342       1
   12333   12351   12336   12357       1   12330   12318   12333   12351       1
   12321   12312   12315   12324       1   12321   12312   12318   12330       1
   12321   12312   12318   12333       1   12321   12336  -12351   12333       1
   12321   12336   12357   12372       1   12321   12336   12357   12375       1
   12321   12339  -12360   12372       1   12318   12312   12315   12324       1
   12318   12312   12321   12336       1   12318   12312   12321   12339       1
   12318   12330  -12342   12324       1   12318   12333  -12351   12336       1
   12315   12312   12318   12330       1   12315   12312   12318   12333       1
   12315   12312   12321   12336       1   12315   12312   12321   12339       1
   12315   12324  -12342   12330       1   12312   12315   12324   12342       1
   12312   12318  -12330   12342       1   12312   12318   12333   12351       1
   12312   12321  -12336   12351       1   12312   12321   12336   12357       1
   12312   12321   12339   12360       1   12501   12489   12498   12507       1
   12501   12510  -12516   12507       1   12498   12489   12501   12510       1
   12498   12507  -12516   12510       1   12492   12498   12489   12501       1
   12492   12498   12507   12516       1   12489   12498   12507   12516       1
   12489   12501  -12510   12516       1   12483   12465   12480   12489       1
   12483   12492  -12498   12489       1   12483   12492   12498   12507       1
   12480   12465   12483   12492       1   12480   12489  -12498   12492       1
   12480   12489   12498   12507       1   12480   12489   12501   12510       1
   12468   12480   12465   12483       1   12468   12480   12489   12498       1
   12468   12480   12489   12501       1   12465   12480   12489   12498       1
   12465   12480   12489   12501       1   12465   12483  -12492   12498       1
   12459   12444   12465   12480       1   12459   12444   12465   12483       1
   12447   12429   12444   12459       1   12447   12429   12444   12465       1
   12447   12468  -12480   12465       1   12447   12468   12480   12489       1
   12444   12429   12447   12468       1   12444   12465  -12480   12468       1
   12444   12465   12480   12489       1   12444   12465   12483   12492       1
   12441   12426   12438   12450       1   12441   12459   12444   12465       1
   12438   12426   12441   12459       1   12429   12420   12423   12432       1
   12429   12420   12426   12438       1   12429   12420   12426   12441       1
   12429   12444  -12459   12441       1   12429   12444   12465   12480       1
   12429   12444   12465   12483       1   12429   12447  -12468   12480       1
   12426   12420   12423   12432       1   12426   12420   12429   12444       1
   12426   12420   12429   12447       1   12426   12438  -12450   12432       1
   12426   12441  -12459   12444       1   12423   12420   12426   12438       1
   12423   12420   12426   12441       1   12423   12420   12429   12444       1
   12423   12420   12429   12447       1   12423   12432  -12450   12438       1
   12420   12423   12432   12450       1   12420   12426  -12438   12450       1
   12420   12426   12441   12459       1   12420   12429  -12444   12459       1
   12420   12429   12444   12465       1   12420   12429   12447   12468       1
   12609   12597   12606   12615       1   12609   12618  -12624   12615       1
   12606   12597   12609   12618       1   12606   12615  -12624   12618       1
   12600   12606   12597   12609       1   12600   12606   12615   12624       1
   12597   12606   12615   12624       1   12597   12609  -12618   12624       1
   12591   12573   12588   12597       1   12591   12600  -12606   12597       1
   12591   12600   12606   12615       1   12588   12573   12591   12600       1
   12588   12597  -12606   12600       1   12588   12597   12606   12615       1
   12588   12597   12609   12618       1   12576   12588   12573   12591       1
   12576   12588   12597   12606       1   12576   12588   12597   12609       1
   12573   12588   12597   12606       1   12573   12588   12597   12609       1
   12573   12591  -12600   12606       1   12567   12552   12573   12588       1
   12567   12552   12573   12591       1   12555   12537   12552   12567       1
   12555   12537   12552   12573       1   12555   12576  -12588   12573       1
   12555   12576   12588   12597       1   12552   12537   12555   12576       1
   12552   12573  -12588   12576       1   12552   12573   12588   12597       1
   12552   12573   12591   12600       1   12549   12534   12546   12558       1
   12549   12567   12552   12573       1   12546   12534   12549   12567       1
   12537   12528   12531   12540       1   12537   12528   12534   12546       1
   12537   12528   12534   12549       1   12537   12552  -12567   12549       1
   12537   12552   12573   12588       1   12537   12552   12573   12591       1
   12537   12555  -12576   12588       1   12534   12528   12531   12540       1
   12534   12528   12537   12552       1   12534   12528   12537   12555       1
   12534   12546  -12558   12540       1   12534   12549  -12567   12552       1
   12531   12528   12534   12546       1   12531   12528   12534   12549       1
   12531   12528   12537   12552       1   12531   12528   12537   12555       1
   12531   12540  -12558   12546       1   12528   12531   12540   12558       1
   12528   12534  -12546   12558       1   12528   12534   12549   12567       1
   12528   12537  -12552   12567       1   12528   12537   12552   12573       1
   12528   12537   12555   12576       1   12717   12705   12714   12723       1
   12717   12726  -12732   12723       1   12714   12705   12717   12726       1
   12714   12723  -12732   12726       1   12708   12714   12705   12717       1
   12708   12714   12723   12732       1   12705   12714   12723   12732       1
   12705   12717  -12726   12732       1   12699   12681   12696   12705       1
   12699   12708  -12714   12705       1   12699   12708   12714   12723       1
   12696   12681   12699   12708       1   12696   12705  -12714   12708       1
   12696   12705   12714   12723       1   12696   12705   12717   12726       1
   12684   12696   12681   12699       1   12684   12696   12705   12714       1
   12684   12696   12705   12717       1   12681   12696   12705   12714       1
   12681   12696   12705   12717       1   12681   12699  -12708   12714       1
   12675   12660   12681   12696       1   12675   12660   12681   12699       1
   12663   12645   12660   12675       1   12663   12645   12660   12681       1
   12663   12684  -12696   12681       1   12663   12684   12696   12705       1
   12660   12645   12663   12684       1   12660   12681  -12696   12684       1
   12660   12681   12696   12705       1   12660   12681   12699   12708       1
   12657   12642   12654   12666       1   12657   12675   12660   12681       1
   12654   12642   12657   12675       1   12645   12636   12639   12648       1
   12645   12636   12642   12654       1   12645   12636   12642   12657       1
   12645   12660  -12675   12657       1   12645   12660   12681   12696       1
   12645   12660   12681   12699       1   12645   12663  -12684   12696       1
   12642   12636   12639   12648       1   12642   12636   12645   12660       1
   12642   12636   12645   12663       1   12642   12654  -12666   12648       1
   12642   12657  -12675   12660       1   12639   12636   12642   12654       1
   12639   12636   12642   12657       1   12639   12636   12645   12660       1
   12639   12636   12645   12663       1   12639   12648  -12666   12654       1
   12636   12639   12648   12666       1   12636   12642  -12654   12666       1
   12636   12642   12657   12675       1   12636   12645  -12660   12675       1
   12636   12645   12660   12681       1   12636   12645   12663   12684       1
   12825   12813   12822   12831       1   12825   12834  -12840   12831       1
   12822   12813   12825   12834       1   12822   12831  -12840   12834       1
   12816   12822   12813   12825       1   12816   12822   12831   12840       1
   12813   12822   12831   12840       1   12813   12825  -12834   12840       1
   12807   12789   12804   12813       1   12807   12816  -12822   12813       1
   12807   12816   12822   12831       1   12804   12789   12807   12816       1
   12804   12813  -12822   12816       1   12804   12813   12822   12831       1
   12804   12813   12825   12834       1   12792   12804   12789   12807       1
   12792   12804   12813   12822       1   12792   12804   12813   12825       1
   12789   12804   12813   12822       1   12789   12804   12813   12825       1
   12789   12807  -12816   12822       1   12783   12768   12789   12804       1
   12783   12768   12789   12807       1   12771   12753   12768   12783       1
   12771   12753   12768   12789       1   12771   12792  -12804   12789       1
   12771   12792   12804   12813       1   12768   12753   12771   12792       1
   12768   12789  -12804   12792       1   12768   12789   12804   12813       1
   12768   12789   12807   12816       1   12765   12750   12762   12774       1
   12765   12783   12768   12789       1   12762   12750   12765   12783       1
   12753   12744   12747   12756       1   12753   12744   12750   12762       1
   12753   12744   12750   12765       1   12753   12768  -12783   12765       1
   12753   12768   12789   12804       1   12753   12768   12789   12807       1
   12753   12771  -12792   12804       1   12750   12744   12747   12756       1
   12750   12744   12753   12768       1   12750   12744   12753   12771       1
   12750   12762  -12774   12756       1   12750   12765  -12783   12768       1
   12747   12744   12750   12762       1   12747   12744   12750   12765       1
   12747   12744   12753   12768       1   12747   12744   12753   12771       1
   12747   12756  -12774   12762       1   12744   12747   12756   12774       1
   12744   12750  -12762   12774       1   12744   12750   12765   12783       1
   12744   12753  -12768   12783       1   12744   12753   12768   12789       1
   12744   12753   12771   12792       1   12933   12921   12930   12939       1
   12933   12942  -12948   12939       1   12930   12921   12933   12942       1
   12930   12939  -12948   12942       1   12924   12930   12921   12933       1
   12924   12930   12939   12948       1   12921   12930   12939   12948       1
   12921   12933  -12942   12948       1   12915   12897   12912   12921       1
   12915   12924  -12930   12921       1   12915   12924   12930   12939       1
   12912   12897   12915   12924       1   12912   12921  -12930   12924       1
   12912   12921   12930   12939       1   12912   12921   12933   12942       1
   12900   12912   12897   12915       1   12900   12912   12921   12930       1
   12900   12912   12921   12933       1   12897   12912   12921   12930       1
   12897   12912   12921   12933       1   12897   12915  -12924   12930       1
   12891   12876   12897   12912       1   12891   12876   12897   12915       1
   12879   12861   12876   12891       1   12879   12861   12876   12897       1
   12879   12900  -12912   12897       1   12879   12900   12912   12921       1
   12876   12861   12879   12900       1   12876   12897  -12912   12900       1
   12876   12897   12912   12921       1   12876   12897   12915   12924       1
   12873   12858   12870   12882       1   12873   12891   12876   12897       1
   12870   12858   12873   12891       1   12861   12852   12855   12864       1
   12861   12852   12858   12870       1   12861   12852   12858   12873       1
   12861   12876  -12891   12873       1   12861   12876   12897   12912       1
   12861   12876   12897   12915       1   12861   12879  -12900   12912       1
   12858   12852   12855   12864       1   12858   12852   12861   12876       1
   12858   12852   12861   12879       1   12858   12870  -12882   12864       1
   12858   12873  -12891   12876       1   12855   12852   12858   12870       1
   12855   12852   12858   12873       1   12855   12852   12861   12876       1
   12855   12852   12861   12879       1   12855   12864  -12882   12870       1
   12852   12855   12864   12882       1   12852   12858  -12870   12882       1
   12852   12858   12873   12891       1   12852   12861  -12876   12891       1
   12852   12861   12876   12897       1   12852   12861   12879   12900       1
   13041   13029   13038   13047       1   13041   13050  -13056   13047       1
   13038   13029   13041   13050       1   13038   13047  -13056   13050       1
   13032   13038   13029   13041       1   13032   13038   13047   13056       1
   13029   13038   13047   13056       1   13029   13041  -13050   13056       1
   13023   13005   13020   13029       1   13023   13032  -13038   13029       1
   13023   13032   13038   13047       1   13020   13005   13023   13032       1
   13020   13029  -13038   13032       1   13020   13029   13038   13047       1
   13020   13029   13041   13050       1   13008   13020   13005   13023       1
   13008   13020   13029   13038       1   13008   13020   13029   13041       1
   13005   13020   13029   13038       1   13005   13020   13029   13041       1
   13005   13023  -13032   13038       1   12999   12984   13005   13020       1
   12999   12984   13005   13023       1   12987   12969   12984   12999       1
   12987   12969   12984   13005       1   12987   13008  -13020   13005       1
   12987   13008   13020   13029       1   12984   12969   12987   13008       1
   12984   13005  -13020   13008       1   12984   13005   13020   13029       1
   12984   13005   13023   13032       1   12981   12966   12978   12990       1
   12981   12999   12984   13005       1   12978   12966   12981   12999       1
   12969   12960   12963   12972       1   12969   12960   12966   12978       1
   12969   12960   12966   12981       1   12969   12984  -12999   12981       1
   12969   12984   13005   13020       1   12969   12984   13005   13023       1
   12969   12987  -13008   13020       1   12966   12960   12963   12972       1
   12966   12960   12969   12984       1   12966   12960   12969   12987       1
   12966   12978  -12990   12972       1   12966   12981  -12999   12984       1
   12963   12960   12966   12978       1   12963   12960   12966   12981       1
   12963   12960   12969   12984       1   12963   12960   12969   12987       1
   12963   12972  -12990   12978       1   12960   12963   12972   12990       1
   12960   12966  -12978   12990       1   12960   12966   12981   12999       1
   12960   12969  -12984   12999       1   12960   12969   12984   13005       1
   12960   12969   12987   13008       1   13149   13137   13146   13155       1
   13149   13158  -13164   13155       1   13146   13137   13149   13158       1
   13146   13155  -13164   13158       1   13140   13146   13137   13149       1
   13140   13146   13155   13164       1   13137   13146   13155   13164       1
   13137   13149  -13158   13164       1   13131   13113   13128   13137       1
   13131   13140  -13146   13137       1   13131   13140   13146   13155       1
   13128   13113   13131   13140       1   13128   13137  -13146   13140       1
   13128   13137   13146   13155       1   13128   13137   13149   13158       1
   13116   13128   13113   13131       1   13116   13128   13137   13146       1
   13116   13128   13137   13149       1   13113   13128   13137   13146       1
   13113   13128   13137   13149       1   13113   13131  -13140   13146       1
   13107   13092   13113   13128       1   13107   13092   13113   13131       1
   13095   13077   13092   13107       1   13095   13077   13092   13113       1
   13095   13116  -13128   13113       1   13095   13116   13128   13137       1
   13092   13077   13095   13116       1   13092   13113  -13128   13116       1
   13092   13113   13128   13137       1   13092   13113   13131   13140       1
   13089   13074   13086   13098       1   13089   13107   13092   13113       1
   13086   13074   13089   13107       1   13077   13068   13071   13080       1
   13077   13068   13074   13086       1   13077   13068   13074   13089       1
   13077   13092  -13107   13089       1   13077   13092   13113   13128       1
   13077   13092   13113   13131       1   13077   13095  -13116   13128       1
   13074   13068   13071   13080       1   13074   13068   13077   13092       1
   13074   13068   13077   13095       1   13074   13086  -13098   13080       1
   13074   13089  -13107   13092       1   13071   13068   13074   13086       1
   13071   13068   13074   13089       1   13071   13068   13077   13092       1
   13071   13068   13077   13095       1   13071   13080  -13098   13086       1
   13068   13071   13080   13098       1   13068   13074  -13086   13098       1
   13068   13074   13089   13107       1   13068   13077  -13092   13107       1
   13068   13077   13092   13113       1   13068   13077   13095   13116       1
   13257   13245   13254   13263       1   13257   13266  -13272   13263       1
   13254   13245   13257   13266       1   13254   13263  -13272   13266       1
   13248   13254   13245   13257       1   13248   13254   13263   13272       1
   13245   13254   13263   13272       1   13245   13257  -13266   13272       1
   13239   13221   13236   13245       1   13239   13248  -13254   13245       1
   13239   13248   13254   13263       1   13236   13221   13239   13248       1
   13236   13245  -13254   13248       1   13236   13245   13254   13263       1
   13236   13245   13257   13266       1   13224   13236   13221   13239       1
   13224   13236   13245   13254       1   13224   13236   13245   13257       1
   13221   13236   13245   13254       1   13221   13236   13245   13257       1
   13221   13239  -13248   13254       1   13215   13200   13221   13236       1
   13215   13200   13221   13239       1   13203   13185   13200   13215       1
   13203   13185   13200   13221       1   13203   13224  -13236   13221       1
   13203   13224   13236   13245       1   13200   13185   13203   13224       1
   13200   13221  -13236   13224       1   13200   13221   13236   13245       1
   13200   13221   13239   13248       1   13197   13182   13194   13206       1
   13197   13215   13200   13221       1   13194   13182   13197   13215       1
   13185   13176   13179   13188       1   13185   13176   13182   13194       1
   13185   13176   13182   13197       1   13185   13200  -13215   13197       1
   13185   13200   13221   13236       1   13185   13200   13221   13239       1
   13185   13203  -13224   13236       1   13182   13176   13179   13188       1
   13182   13176   13185   13200       1   13182   13176   13185   13203       1
   13182   13194  -13206   13188       1   13182   13197  -13215   13200       1
   13179   13176   13182   13194       1   13179   13176   13182   13197       1
   13179   13176   13185   13200       1   13179   13176   13185   13203       1
   13179   13188  -13206   13194       1   13176   13179   13188   13206       1
   13176   13182  -13194   13206       1   13176   13182   13197   13215       1
   13176   13185  -13200   13215       1   13176   13185   13200   13221       1
   13176   13185   13203   13224       1   13365   13353   13362   13371       1
   13365   13374  -13380   13371       1   13362   13353   13365   13374       1
   13362   13371  -13380   13374       1   13356   13362   13353   13365       1
   13356   13362   13371   13380       1   13353   13362   13371   13380       1
   13353   13365  -13374   13380       1   13347   13329   13344   13353       1
   13347   13356  -13362   13353       1   13347   13356   13362   13371       1
   13344   13329   13347   13356       1   13344   13353  -13362   13356       1
   13344   13353   13362   13371       1   13344   13353   13365   13374       1
   13332   13344   13329   13347       1   13332   13344   13353   13362       1
   13332   13344   13353   13365       1   13329   13344   13353   13362       1
   13329   13344   13353   13365       1   13329   13347  -13356   13362       1
   13323   13308   13329   13344       1   13323   13308   13329   13347       1
   13311   13293   13308   13323       1   13311   13293   13308   13329       1
   13311   13332  -13344   13329       1   13311   13332   13344   13353       1
   13308   13293   13311   13332       1   13308   13329  -13344   13332       1
   13308   13329   13344   13353       1   13308   13329   13347   13356       1
   13305   13290   13302   13314       1   13305   13323   13308   13329       1
   13302   13290   13305   13323       1   13293   13284   13287   13296       1
   13293   13284   13290   13302       1   13293   13284   13290   13305       1
   13293   13308  -13323   13305       1   13293   13308   13329   13344       1
   13293   13308   13329   13347       1   13293   13311  -13332   13344       1
   13290   13284   13287   13296       1   13290   13284   13293   13308       1
   13290   13284   13293   13311       1   13290   13302  -13314   13296       1
   13290   13305  -13323   13308       1   13287   13284   13290   13302       1
   13287   13284   13290   13305       1   13287   13284   13293   13308       1
   13287   13284   13293   13311       1   13287   13296  -13314   13302       1
   13284   13287   13296   13314       1   13284   13290  -13302   13314       1
   13284   13290   13305   13323       1   13284   13293  -13308   13323       1
   13284   13293   13308   13329       1   13284   13293   13311   13332       1
   13473   13461   13470   13479       1   13473   13482  -13488   13479       1
   13470   13461   13473   13482       1   13470   13479  -13488   13482       1
   13464   13470   13461   13473       1   13464   13470   13479   13488       1
   13461   13470   13479   13488       1   13461   13473  -13482   13488       1
   13455   13437   13452   13461       1   13455   13464  -13470   13461       1
   13455   13464   13470   13479       1   13452   13437   13455   13464       1
   13452   13461  -13470   13464       1   13452   13461   13470   13479       1
   13452   13461   13473   13482       1   13440   13452   13437   13455       1
   13440   13452   13461   13470       1   13440   13452   13461   13473       1
   13437   13452   13461   13470       1   13437   13452   13461   13473       1
   13437   13455  -13464   13470       1   13431   13416   13437   13452       1
   13431   13416   13437   13455       1   13419   13401   13416   13431       1
   13419   13401   13416   13437       1   13419   13440  -13452   13437       1
   13419   13440   13452   13461       1   13416   13401   13419   13440       1
   13416   13437  -13452   13440       1   13416   13437   13452   13461       1
   13416   13437   13455   13464       1   13413   13398   13410   13422       1
   13413   13431   13416   13437       1   13410   13398   13413   13431       1
   13401   13392   13395   13404       1   13401   13392   13398   13410       1
   13401   13392   13398   13413       1   13401   13416  -13431   13413       1
   13401   13416   13437   13452       1   13401   13416   13437   13455       1
   13401   13419  -13440   13452       1   13398   13392   13395   13404       1
   13398   13392   13401   13416       1   13398   13392   13401   13419       1
   13398   13410  -13422   13404       1   13398   13413  -13431   13416       1
   13395   13392   13398   13410       1   13395   13392   13398   13413       1
   13395   13392   13401   13416       1   13395   13392   13401   13419       1
   13395   13404  -13422   13410       1   13392   13395   13404   13422       1
   13392   13398  -13410   13422       1   13392   13398   13413   13431       1
   13392   13401  -13416   13431       1   13392   13401   13416   13437       1
   13392   13401   13419   13440       1   13581   13569   13578   13587       1
   13581   13590  -13596   13587       1   13578   13569   13581   13590       1
   13578   13587  -13596   13590       1   13572   13578   13569   13581       1
   13572   13578   13587   13596       1   13569   13578   13587   13596       1
   13569   13581  -13590   13596       1   13563   13545   13560   13569       1
   13563   13572  -13578   13569       1   13563   13572   13578   13587       1
   13560   13545   13563   13572       1   13560   13569  -13578   13572       1
   13560   13569   13578   13587       1   13560   13569   13581   13590       1
   13548   13560   13545   13563       1   13548   13560   13569   13578       1
   13548   13560   13569   13581       1   13545   13560   13569   13578       1
   13545   13560   13569   13581       1   13545   13563  -13572   13578       1
   13539   13524   13545   13560       1   13539   13524   13545   13563       1
   13527   13509   13524   13539       1   13527   13509   13524   13545       1
   13527   13548  -13560   13545       1   13527   13548   13560   13569       1
   13524   13509   13527   13548       1   13524   13545  -13560   13548       1
   13524   13545   13560   13569       1   13524   13545   13563   13572       1
   13521   13506   13518   13530       1   13521   13539   13524   13545       1
   13518   13506   13521   13539       1   13509   13500   13503   13512       1
   13509   13500   13506   13518       1   13509   13500   13506   13521       1
   13509   13524  -13539   13521       1   13509   13524   13545   13560       1
   13509   13524   13545   13563       1   13509   13527  -13548   13560       1
   13506   13500   13503   13512       1   13506   13500   13509   13524       1
   13506   13500   13509   13527       1   13506   13518  -13530   13512       1
   13506   13521  -13539   13524       1   13503   13500   13506   13518       1
   13503   13500   13506   13521       1   13503   13500   13509   13524       1
   13503   13500   13509   13527       1   13503   13512  -13530   13518       1
   13500   13503   13512   13530       1   13500   13506  -13518   13530       1
   13500   13506   13521   13539       1   13500   13509  -13524   13539       1
   13500   13509   13524   13545       1   13500   13509   13527   13548       1
   13689   13677   13686   13695       1   13689   13698  -13704   13695       1
   13686   13677   13689   13698       1   13686   13695  -13704   13698       1
   13680   13686   13677   13689       1   13680   13686   13695   13704       1
   13677   13686   13695   13704       1   13677   13689  -13698   13704       1
   13671   13653   13668   13677       1   13671   13680  -13686   13677       1
   13671   13680   13686   13695       1   13668   13653   13671   13680       1
   13668   13677  -13686   13680       1   13668   13677   13686   13695       1
   13668   13677   13689   13698       1   13656   13668   13653   13671       1
   13656   13668   13677   13686       1   13656   13668   13677   13689       1
   13653   13668   13677   13686       1   13653   13668   13677   13689       1
   13653   13671  -13680   13686       1   13647   13632   13653   13668       1
   13647   13632   13653   13671       1   13635   13617   13632   13647       1
   13635   13617   13632   13653       1   13635   13656  -13668   13653       1
   13635   13656   13668   13677       1   13632   13617   13635   13656       1
   13632   13653  -13668   13656       1   13632   13653   13668   13677       1
   13632   13653   13671   13680       1   13629   13614   13626   13638       1
   13629   13647   13632   13653       1   13626   13614   13629   13647       1
   13617   13608   13611   13620       1   13617   13608   13614   13626       1
   13617   13608   13614   13629       1   13617   13632  -13647   13629       1
   13617   13632   13653   13668       1   13617   13632   13653   13671       1
   13617   13635  -13656   13668       1   13614   13608   13611   13620       1
   13614   13608   13617   13632       1   13614   13608   13617   13635       1
   13614   13626  -13638   13620       1   13614   13629  -13647   13632       1
   13611   13608   13614   13626       1   13611   13608   13614   13629       1
   13611   13608   13617   13632       1   13611   13608   13617   13635       1
   13611   13620  -13638   13626       1   13608   13611   13620   13638       1
   13608   13614  -13626   13638       1   13608   13614   13629   13647       1
   13608   13617  -13632   13647       1   13608   13617   13632   13653       1
   13608   13617   13635   13656       1   13797   13785   13794   13803       1
   13797   13806  -13812   13803       1   13794   13785   13797   13806       1
   13794   13803  -13812   13806       1   13788   13794   13785   13797       1
   13788   13794   13803   13812       1   13785   13794   13803   13812       1
   13785   13797  -13806   13812       1   13779   13761   13776   13785       1
   13779   13788  -13794   13785       1   13779   13788   13794   13803       1
   13776   13761   13779   13788       1   13776   13785  -13794   13788       1
   13776   13785   13794   13803       1   13776   13785   13797   13806       1
   13764   13776   13761   13779       1   13764   13776   13785   13794       1
   13764   13776   13785   13797       1   13761   13776   13785   13794       1
   13761   13776   13785   13797       1   13761   13779  -13788   13794       1
   13755   13740   13761   13776       1   13755   13740   13761   13779       1
   13743   13725   13740   13755       1   13743   13725   13740   13761       1
   13743   13764  -13776   13761       1   13743   13764   13776   13785       1
   13740   13725   13743   13764       1   13740   13761  -13776   13764       1
   13740   13761   13776   13785       1   13740   13761   13779   13788       1
   13737   13722   13734   13746       1   13737   13755   13740   13761       1
   13734   13722   13737   13755       1   13725   13716   13719   13728       1
   13725   13716   13722   13734       1   13725   13716   13722   13737       1
   13725   13740  -13755   13737       1   13725   13740   13761   13776       1
   13725   13740   13761   13779       1   13725   13743  -13764   13776       1
   13722   13716   13719   13728       1   13722   13716   13725   13740       1
   13722   13716   13725   13743       1   13722   13734  -13746   13728       1
   13722   13737  -13755   13740       1   13719   13716   13722   13734       1
   13719   13716   13722   13737       1   13719   13716   13725   13740       1
   13719   13716   13725   13743       1   13719   13728  -13746   13734       1
   13716   13719   13728   13746       1   13716   13722  -13734   13746       1
   13716   13722   13737   13755       1   13716   13725  -13740   13755       1
   13716   13725   13740   13761       1   13716   13725   13743   13764       1
   13905   13893   13902   13911       1   13905   13914  -13920   13911       1
   13902   13893   13905   13914       1   13902   13911  -13920   13914       1
   13896   13902   13893   13905       1   13896   13902   13911   13920       1
   13893   13902   13911   13920       1   13893   13905  -13914   13920       1
   13887   13869   13884   13893       1   13887   13896  -13902   13893       1
   13887   13896   13902   13911       1   13884   13869   13887   13896       1
   13884   13893  -13902   13896       1   13884   13893   13902   13911       1
   13884   13893   13905   13914       1   13872   13884   13869   13887       1
   13872   13884   13893   13902       1   13872   13884   13893   13905       1
   13869   13884   13893   13902       1   13869   13884   13893   13905       1
   13869   13887  -13896   13902       1   13863   13848   13869   13884       1
   13863   13848   13869   13887       1   13851   13833   13848   13863       1
   13851   13833   13848   13869       1   13851   13872  -13884   13869       1
   13851   13872   13884   13893       1   13848   13833   13851   13872       1
   13848   13869  -13884   13872       1   13848   13869   13884   13893       1
   13848   13869   13887   13896       1   13845   13830   13842   13854       1
   13845   13863   13848   13869       1   13842   13830   13845   13863       1
   13833   13824   13827   13836       1   13833   13824   13830   13842       1
   13833   13824   13830   13845       1   13833   13848  -13863   13845       1
   13833   13848   13869   13884       1   13833   13848   13869   13887       1
   13833   13851  -13872   13884       1   13830   13824   13827   13836       1
   13830   13824   13833   13848       1   13830   13824   13833   13851       1
   13830   13842  -13854   13836       1   13830   13845  -13863   13848       1
   13827   13824   13830   13842       1   13827   13824   13830   13845       1
   13827   13824   13833   13848       1   13827   13824   13833   13851       1
   13827   13836  -13854   13842       1   13824   13827   13836   13854       1
   13824   13830  -13842   13854       1   13824   13830   13845   13863       1
   13824   13833  -13848   13863       1   13824   13833   13848   13869       1
   13824   13833   13851   13872       1   14013   14001   14010   14019       1
   14013   14022  -14028   14019       1   14010   14001   14013   14022       1
   14010   14019  -14028   14022       1   14004   14010   14001   14013       1
   14004   14010   14019   14028       1   14001   14010   14019   14028       1
   14001   14013  -14022   14028       1   13995   13977   13992   14001       1
   13995   14004  -14010   14001       1   13995   14004   14010   14019       1
   13992   13977   13995   14004       1   13992   14001  -14010   14004       1
   13992   14001   14010   14019       1   13992   14001   14013   14022       1
   13980   13992   13977   13995       1   13980   13992   14001   14010       1
   13980   13992   14001   14013       1   13977   13992   14001   14010       1
   13977   13992   14001   14013       1   13977   13995  -14004   14010       1
   13971   13956   13977   13992       1   13971   13956   13977   13995       1
   13959   13941   13956   13971       1   13959   13941   13956   13977       1
   13959   13980  -13992   13977       1   13959   13980   13992   14001       1
   13956   13941   13959   13980       1   13956   13977  -13992   13980       1
   13956   13977   13992   14001       1   13956   13977   13995   14004       1
   13953   13938   13950   13962       1   13953   13971   13956   13977       1
   13950   13938   13953   13971       1   13941   13932   13935   13944       1
   13941   13932   13938   13950       1   13941   13932   13938   13953       1
   13941   13956  -13971   13953       1   13941   13956   13977   13992       1
   13941   13956   13977   13995       1   13941   13959  -13980   13992       1
   13938   13932   13935   13944       1   13938   13932   13941   13956       1
   13938   13932   13941   13959       1   13938   13950  -13962   13944       1
   13938   13953  -13971   13956       1   13935   13932   13938   13950       1
   13935   13932   13938   13953       1   13935   13932   13941   13956       1
   13935   13932   13941   13959       1   13935   13944  -13962   13950       1
   13932   13935   13944   13962       1   13932   13938  -13950   13962       1
   13932   13938   13953   13971       1   13932   13941  -13956   13971       1
   13932   13941   13956   13977       1   13932   13941   13959   13980       1
   14121   14109   14118   14127       1   14121   14130  -14136   14127       1
   14118   14109   14121   14130       1   14118   14127  -14136   14130       1
   14112   14118   14109   14121       1   14112   14118   14127   14136       1
   14109   14118   14127   14136       1   14109   14121  -14130   14136       1
   14103   14085   14100   14109       1   14103   14112  -14118   14109       1
   14103   14112   14118   14127       1   14100   14085   14103   14112       1
   14100   14109  -14118   14112       1   14100   14109   14118   14127       1
   14100   14109   14121   14130       1   14088   14100   14085   14103       1
   14088   14100   14109   14118       1   14088   14100   14109   14121       1
   14085   14100   14109   14118       1   14085   14100   14109   14121       1
   14085   14103  -14112   14118       1   14079   14064   14085   14100       1
   14079   14064   14085   14103       1   14067   14049   14064   14079       1
   14067   14049   14064   14085       1   14067   14088  -14100   14085       1
   14067   14088   14100   14109       1   14064   14049   14067   14088       1
   14064   14085  -14100   14088       1   14064   14085   14100   14109       1
   14064   14085   14103   14112       1   14061   14046   14058   14070       1
   14061   14079   14064   14085       1   14058   14046   14061   14079       1
   14049   14040   14043   14052       1   14049   14040   14046   14058       1
   14049   14040   14046   14061       1   14049   14064  -14079   14061       1
   14049   14064   14085   14100       1   14049   14064   14085   14103       1
   14049   14067  -14088   14100       1   14046   14040   14043   14052       1
   14046   14040   14049   14064       1   14046   14040   14049   14067       1
   14046   14058  -14070   14052       1   14046   14061  -14079   14064       1
   14043   14040   14046   14058       1   14043   14040   14046   14061       1
   14043   14040   14049   14064       1   14043   14040   14049   14067       1
   14043   14052  -14070   14058       1   14040   14043   14052   14070       1
   14040   14046  -14058   14070       1   14040   14046   14061   14079       1
   14040   14049  -14064   14079       1   14040   14049   14064   14085       1
   14040   14049   14067   14088       1   14229   14217   14226   14235       1
   14229   14238  -14244   14235       1   14226   14217   14229   14238       1
   14226   14235  -14244   14238       1   14220   14226   14217   14229       1
   14220   14226   14235   14244       1   14217   14226   14235   14244       1
   14217   14229  -14238   14244       1   14211   14193   14208   14217       1
   14211   14220  -14226   14217       1   14211   14220   14226   14235       1
   14208   14193   14211   14220       1   14208   14217  -14226   14220       1
   14208   14217   14226   14235       1   14208   14217   14229   14238       1
   14196   14208   14193   14211       1   14196   14208   14217   14226       1
   14196   14208   14217   14229       1   14193   14208   14217   14226       1
   14193   14208   14217   14229       1   14193   14211  -14220   14226       1
   14187   14172   14193   14208       1   14187   14172   14193   14211       1
   14175   14157   14172   14187       1   14175   14157   14172   14193       1
   14175   14196  -14208   14193       1   14175   14196   14208   14217       1
   14172   14157   14175   14196       1   14172   14193  -14208   14196       1
   14172   14193   14208   14217       1   14172   14193   14211   14220       1
   14169   14154   14166   14178       1   14169   14187   14172   14193       1
   14166   14154   14169   14187       1   14157   14148   14151   14160       1
   14157   14148   14154   14166       1   14157   14148   14154   14169       1
   14157   14172  -14187   14169       1   14157   14172   14193   14208       1
   14157   14172   14193   14211       1   14157   14175  -14196   14208       1
   14154   14148   14151   14160       1   14154   14148   14157   14172       1
   14154   14148   14157   14175       1   14154   14166  -14178   14160       1
   14154   14169  -14187   14172       1   14151   14148   14154   14166       1
   14151   14148   14154   14169       1   14151   14148   14157   14172       1
   14151   14148   14157   14175       1   14151   14160  -14178   14166       1
   14148   14151   14160   14178       1   14148   14154  -14166   14178       1
   14148   14154   14169   14187       1   14148   14157  -14172   14187       1
   14148   14157   14172   14193       1   14148   14157   14175   14196       1
   14337   14325   14334   14343       1   14337   14346  -14352   14343       1
   14334   14325   14337   14346       1   14334   14343  -14352   14346       1
   14328   14334   14325   14337       1   14328   14334   14343   14352       1
   14325   14334   14343   14352       1   14325   14337  -14346   14352       1
   14319   14301   14316   14325       1   14319   14328  -14334   14325       1
   14319   14328   14334   14343       1   14316   14301   14319   14328       1
   14316   14325  -14334   14328       1   14316   14325   14334   14343       1
   14316   14325   14337   14346       1   14304   14316   14301   14319       1
   14304   14316   14325   14334       1   14304   14316   14325   14337       1
   14301   14316   14325   14334       1   14301   14316   14325   14337       1
   14301   14319  -14328   14334       1   14295   14280   14301   14316       1
   14295   14280   14301   14319       1   14283   14265   14280   14295       1
   14283   14265   14280   14301       1   14283   14304  -14316   14301       1
   14283   14304   14316   14325       1   14280   14265   14283   14304       1
   14280   14301  -14316   14304       1   14280   14301   14316   14325       1
   14280   14301   14319   14328       1   14277   14262   14274   14286       1
   14277   14295   14280   14301       1   14274   14262   14277   14295       1
   14265   14256   14259   14268       1   14265   14256   14262   14274       1
   14265   14256   14262   14277       1   14265   14280  -14295   14277       1
   14265   14280   14301   14316       1   14265   14280   14301   14319       1
   14265   14283  -14304   14316       1   14262   14256   14259   14268       1
   14262   14256   14265   14280       1   14262   14256   14265   14283       1
   14262   14274  -14286   14268       1   14262   14277  -14295   14280       1
   14259   14256   14262   14274       1   14259   14256   14262   14277       1
   14259   14256   14265   14280       1   14259   14256   14265   14283       1
   14259   14268  -14286   14274       1   14256   14259   14268   14286       1
   14256   14262  -14274   14286       1   14256   14262   14277   14295       1
   14256   14265  -14280   14295       1   14256   14265   14280   14301       1
   14256   14265   14283   14304       1   14445   14433   14442   14451       1
   14445   14454  -14460   14451       1   14442   14433   14445   14454       1
   14442   14451  -14460   14454       1   14436   14442   14433   14445       1
   14436   14442   14451   14460       1   14433   14442   14451   14460       1
   14433   14445  -14454   14460       1   14427   14409   14424   14433       1
   14427   14436  -14442   14433       1   14427   14436   14442   14451       1
   14424   14409   14427   14436       1   14424   14433  -14442   14436       1
   14424   14433   14442   14451       1   14424   14433   14445   14454       1
   14412   14424   14409   14427       1   14412   14424   14433   14442       1
   14412   14424   14433   14445       1   14409   14424   14433   14442       1
   14409   14424   14433   14445       1   14409   14427  -14436   14442       1
   14403   14388   14409   14424       1   14403   14388   14409   14427       1
   14391   14373   14388   14403       1   14391   14373   14388   14409       1
   14391   14412  -14424   14409       1   14391   14412   14424   14433       1
   14388   14373   14391   14412       1   14388   14409  -14424   14412       1
   14388   14409   14424   14433       1   14388   14409   14427   14436       1
   14385   14370   14382   14394       1   14385   14403   14388   14409       1
   14382   14370   14385   14403       1   14373   14364   14367   14376       1
   14373   14364   14370   14382       1   14373   14364   14370   14385       1
   14373   14388  -14403   14385       1   14373   14388   14409   14424       1
   14373   14388   14409   14427       1   14373   14391  -14412   14424       1
   14370   14364   14367   14376       1   14370   14364   14373   14388       1
   14370   14364   14373   14391       1   14370   14382  -14394   14376       1
   14370   14385  -14403   14388       1   14367   14364   14370   14382       1
   14367   14364   14370   14385       1   14367   14364   14373   14388       1
   14367   14364   14373   14391       1   14367   14376  -14394   14382       1
   14364   14367   14376   14394       1   14364   14370  -14382   14394       1
   14364   14370   14385   14403       1   14364   14373  -14388   14403       1
   14364   14373   14388   14409       1   14364   14373   14391   14412       1
   14553   14541   14550   14559       1   14553   14562  -14568   14559       1
   14550   14541   14553   14562       1   14550   14559  -14568   14562       1
   14544   14550   14541   14553       1   14544   14550   14559   14568       1
   14541   14550   14559   14568       1   14541   14553  -14562   14568       1
   14535   14517   14532   14541       1   14535   14544  -14550   14541       1
   14535   14544   14550   14559       1   14532   14517   14535   14544       1
   14532   14541  -14550   14544       1   14532   14541   14550   14559       1
   14532   14541   14553   14562       1   14520   14532   14517   14535       1
   14520   14532   14541   14550       1   14520   14532   14541   14553       1
   14517   14532   14541   14550       1   14517   14532   14541   14553       1
   14517   14535  -14544   14550       1   14511   14496   14517   14532       1
   14511   14496   14517   14535       1   14499   14481   14496   14511       1
   14499   14481   14496   14517       1   14499   14520  -14532   14517       1
   14499   14520   14532   14541       1   14496   14481   14499   14520       1
   14496   14517  -14532   14520       1   14496   14517   14532   14541       1
   14496   14517   14535   14544       1   14493   14478   14490   14502       1
   14493   14511   14496   14517       1   14490   14478   14493   14511       1
   14481   14472   14475   14484       1   14481   14472   14478   14490       1
   14481   14472   14478   14493       1   14481   14496  -14511   14493       1
   14481   14496   14517   14532       1   14481   14496   14517   14535       1
   14481   14499  -14520   14532       1   14478   14472   14475   14484       1
   14478   14472   14481   14496       1   14478   14472   14481   14499       1
   14478   14490  -14502   14484       1   14478   14493  -14511   14496       1
   14475   14472   14478   14490       1   14475   14472   14478   14493       1
   14475   14472   14481   14496       1   14475   14472   14481   14499       1
   14475   14484  -14502   14490       1   14472   14475   14484   14502       1
   14472   14478  -14490   14502       1   14472   14478   14493   14511       1
   14472   14481  -14496   14511       1   14472   14481   14496   14517       1
   14472   14481   14499   14520       1   14661   14649   14658   14667       1
   14661   14670  -14676   14667       1   14658   14649   14661   14670       1
   14658   14667  -14676   14670       1   14652   14658   14649   14661       1
   14652   14658   14667   14676       1   14649   14658   14667   14676       1
   14649   14661  -14670   14676       1   14643   14625   14640   14649       1
   14643   14652  -14658   14649       1   14643   14652   14658   14667       1
   14640   14625   14643   14652       1   14640   14649  -14658   14652       1
   14640   14649   14658   14667       1   14640   14649   14661   14670       1
   14628   14640   14625   14643       1   14628   14640   14649   14658       1
   14628   14640   14649   14661       1   14625   14640   14649   14658       1
   14625   14640   14649   14661       1   14625   14643  -14652   14658       1
   14619   14604   14625   14640       1   14619   14604   14625   14643       1
   14607   14589   14604   14619       1   14607   14589   14604   14625       1
   14607   14628  -14640   14625       1   14607   14628   14640   14649       1
   14604   14589   14607   14628       1   14604   14625  -14640   14628       1
   14604   14625   14640   14649       1   14604   14625   14643   14652       1
   14601   14586   14598   14610       1   14601   14619   14604   14625       1
   14598   14586   14601   14619       1   14589   14580   14583   14592       1
   14589   14580   14586   14598       1   14589   14580   14586   14601       1
   14589   14604  -14619   14601       1   14589   14604   14625   14640       1
   14589   14604   14625   14643       1   14589   14607  -14628   14640       1
   14586   14580   14583   14592       1   14586   14580   14589   14604       1
   14586   14580   14589   14607       1   14586   14598  -14610   14592       1
   14586   14601  -14619   14604       1   14583   14580   14586   14598       1
   14583   14580   14586   14601       1   14583   14580   14589   14604       1
   14583   14580   14589   14607       1   14583   14592  -14610   14598       1
   14580   14583   14592   14610       1   14580   14586  -14598   14610       1
   14580   14586   14601   14619       1   14580   14589  -14604   14619       1
   14580   14589   14604   14625       1   14580   14589   14607   14628       1
   14769   14757   14766   14775       1   14769   14778  -14784   14775       1
   14766   14757   14769   14778       1   14766   14775  -14784   14778       1
   14760   14766   14757   14769       1   14760   14766   14775   14784       1
   14757   14766   14775   14784       1   14757   14769  -14778   14784       1
   14751   14733   14748   14757       1   14751   14760  -14766   14757       1
   14751   14760   14766   14775       1   14748   14733   14751   14760       1
   14748   14757  -14766   14760       1   14748   14757   14766   14775       1
   14748   14757   14769   14778       1   14736   14748   14733   14751       1
   14736   14748   14757   14766       1   14736   14748   14757   14769       1
   14733   14748   14757   14766       1   14733   14748   14757   14769       1
   14733   14751  -14760   14766       1   14727   14712   14733   14748       1
   14727   14712   14733   14751       1   14715   14697   14712   14727       1
   14715   14697   14712   14733       1   14715   14736  -14748   14733       1
   14715   14736   14748   14757       1   14712   14697   14715   14736       1
   14712   14733  -14748   14736       1   14712   14733   14748   14757       1
   14712   14733   14751   14760       1   14709   14694   14706   14718       1
   14709   14727   14712   14733       1   14706   14694   14709   14727       1
   14697   14688   14691   14700       1   14697   14688   14694   14706       1
   14697   14688   14694   14709       1   14697   14712  -14727   14709       1
   14697   14712   14733   14748       1   14697   14712   14733   14751       1
   14697   14715  -14736   14748       1   14694   14688   14691   14700       1
   14694   14688   14697   14712       1   14694   14688   14697   14715       1
   14694   14706  -14718   14700       1   14694   14709  -14727   14712       1
   14691   14688   14694   14706       1   14691   14688   14694   14709       1
   14691   14688   14697   14712       1   14691   14688   14697   14715       1
   14691   14700  -14718   14706       1   14688   14691   14700   14718       1
   14688   14694  -14706   14718       1   14688   14694   14709   14727       1
   14688   14697  -14712   14727       1   14688   14697   14712   14733       1
   14688   14697   14715   14736       1   14877   14865   14874   14883       1
   14877   14886  -14892   14883       1   14874   14865   14877   14886       1
   14874   14883  -14892   14886       1   14868   14874   14865   14877       1
   14868   14874   14883   14892       1   14865   14874   14883   14892       1
   14865   14877  -14886   14892       1   14859   14841   14856   14865       1
   14859   14868  -14874   14865       1   14859   14868   14874   14883       1
   14856   14841   14859   14868       1   14856   14865  -14874   14868       1
   14856   14865   14874   14883       1   14856   14865   14877   14886       1
   14844   14856   14841   14859       1   14844   14856   14865   14874       1
   14844   14856   14865   14877       1   14841   14856   14865   14874       1
   14841   14856   14865   14877       1   14841   14859  -14868   14874       1
   14835   14820   14841   14856       1   14835   14820   14841   14859       1
   14823   14805   14820   14835       1   14823   14805   14820   14841       1
   14823   14844  -14856   14841       1   14823   14844   14856   14865       1
   14820   14805   14823   14844       1   14820   14841  -14856   14844       1
   14820   14841   14856   14865       1   14820   14841   14859   14868       1
   14817   14802   14814   14826       1   14817   14835   14820   14841       1
   14814   14802   14817   14835       1   14805   14796   14799   14808       1
   14805   14796   14802   14814       1   14805   14796   14802   14817       1
   14805   14820  -14835   14817       1   14805   14820   14841   14856       1
   14805   14820   14841   14859       1   14805   14823  -14844   14856       1
   14802   14796   14799   14808       1   14802   14796   14805   14820       1
   14802   14796   14805   14823       1   14802   14814  -14826   14808       1
   14802   14817  -14835   14820       1   14799   14796   14802   14814       1
   14799   14796   14802   14817       1   14799   14796   14805   14820       1
   14799   14796   14805   14823       1   14799   14808  -14826   14814       1
   14796   14799   14808   14826       1   14796   14802  -14814   14826       1
   14796   14802   14817   14835       1   14796   14805  -14820   14835       1
   14796   14805   14820   14841       1   14796   14805   14823   14844       1
   14985   14973   14982   14991       1   14985   14994  -15000   14991       1
   14982   14973   14985   14994       1   14982   14991  -15000   14994       1
   14976   14982   14973   14985       1   14976   14982   14991   15000       1
   14973   14982   14991   15000       1   14973   14985  -14994   15000       1
   14967   14949   14964   14973       1   14967   14976  -14982   14973       1
   14967   14976   14982   14991       1   14964   14949   14967   14976       1
   14964   14973  -14982   14976       1   14964   14973   14982   14991       1
   14964   14973   14985   14994       1   14952   14964   14949   14967       1
   14952   14964   14973   14982       1   14952   14964   14973   14985       1
   14949   14964   14973   14982       1   14949   14964   14973   14985       1
   14949   14967  -14976   14982       1   14943   14928   14949   14964       1
   14943   14928   14949   14967       1   14931   14913   14928   14943       1
   14931   14913   14928   14949       1   14931   14952  -14964   14949       1
   14931   14952   14964   14973       1   14928   14913   14931   14952       1
   14928   14949  -14964   14952       1   14928   14949   14964   14973       1
   14928   14949   14967   14976       1   14925   14910   14922   14934       1
   14925   14943   14928   14949       1   14922   14910   14925   14943       1
   14913   14904   14907   14916       1   14913   14904   14910   14922       1
   14913   14904   14910   14925       1   14913   14928  -14943   14925       1
   14913   14928   14949   14964       1   14913   14928   14949   14967       1
   14913   14931  -14952   14964       1   14910   14904   14907   14916       1
   14910   14904   14913   14928       1   14910   14904   14913   14931       1
   14910   14922  -14934   14916       1   14910   14925  -14943   14928       1
   14907   14904   14910   14922       1   14907   14904   14910   14925       1
   14907   14904   14913   14928       1   14907   14904   14913   14931       1
   14907   14916  -14934   14922       1   14904   14907   14916   14934       1
   14904   14910  -14922   14934       1   14904   14910   14925   14943       1
   14904   14913  -14928   14943       1   14904   14913   14928   14949       1
   14904   14913   14931   14952       1   15093   15081   15090   15099       1
   15093   15102  -15108   15099       1   15090   15081   15093   15102       1
   15090   15099  -15108   15102       1   15084   15090   15081   15093       1
   15084   15090   15099   15108       1   15081   15090   15099   15108       1
   15081   15093  -15102   15108       1   15075   15057   15072   15081       1
   15075   15084  -15090   15081       1   15075   15084   15090   15099       1
   15072   15057   15075   15084       1   15072   15081  -15090   15084       1
   15072   15081   15090   15099       1   15072   15081   15093   15102       1
   15060   15072   15057   15075       1   15060   15072   15081   15090       1
   15060   15072   15081   15093       1   15057   15072   15081   15090       1
   15057   15072   15081   15093       1   15057   15075  -15084   15090       1
   15051   15036   15057   15072       1   15051   15036   15057   15075       1
   15039   15021   15036   15051       1   15039   15021   15036   15057       1
   15039   15060  -15072   15057       1   15039   15060   15072   15081       1
   15036   15021   15039   15060       1   15036   15057  -15072   15060       1
   15036   15057   15072   15081       1   15036   15057   15075   15084       1
   15033   15018   15030   15042       1   15033   15051   15036   15057       1
   15030   15018   15033   15051       1   15021   15012   15015   15024       1
   15021   15012   15018   15030       1   15021   15012   15018   15033       1
   15021   15036  -15051   15033       1   15021   15036   15057   15072       1
   15021   15036   15057   15075       1   15021   15039  -15060   15072       1
   15018   15012   15015   15024       1   15018   15012   15021   15036       1
   15018   15012   15021   15039       1   15018   15030  -15042   15024       1
   15018   15033  -15051   15036       1   15015   15012   15018   15030       1
   15015   15012   15018   15033       1   15015   15012   15021   15036       1
   15015   15012   15021   15039       1   15015   15024  -15042   15030       1
   15012   15015   15024   15042       1   15012   15018  -15030   15042       1
   15012   15018   15033   15051       1   15012   15021  -15036   15051       1
   15012   15021   15036   15057       1   15012   15021   15039   15060       1
   15201   15189   15198   15207       1   15201   15210  -15216   15207       1
   15198   15189   15201   15210       1   15198   15207  -15216   15210       1
   15192   15198   15189   15201       1   15192   15198   15207   15216       1
   15189   15198   15207   15216       1   15189   15201  -15210   15216       1
   15183   15165   15180   15189       1   15183   15192  -15198   15189       1
   15183   15192   15198   15207       1   15180   15165   15183   15192       1
   15180   15189  -15198   15192       1   15180   15189   15198   15207       1
   15180   15189   15201   15210       1   15168   15180   15165   15183       1
   15168   15180   15189   15198       1   15168   15180   15189   15201       1
   15165   15180   15189   15198       1   15165   15180   15189   15201       1
   15165   15183  -15192   15198       1   15159   15144   15165   15180       1
   15159   15144   15165   15183       1   15147   15129   15144   15159       1
   15147   15129   15144   15165       1   15147   15168  -15180   15165       1
   15147   15168   15180   15189       1   15144   15129   15147   15168       1
   15144   15165  -15180   15168       1   15144   15165   15180   15189       1
   15144   15165   15183   15192       1   15141   15126   15138   15150       1
   15141   15159   15144   15165       1   15138   15126   15141   15159       1
   15129   15120   15123   15132       1   15129   15120   15126   15138       1
   15129   15120   15126   15141       1   15129   15144  -15159   15141       1
   15129   15144   15165   15180       1   15129   15144   15165   15183       1
   15129   15147  -15168   15180       1   15126   15120   15123   15132       1
   15126   15120   15129   15144       1   15126   15120   15129   15147       1
   15126   15138  -15150   15132       1   15126   15141  -15159   15144       1
   15123   15120   15126   15138       1   15123   15120   15126   15141       1
   15123   15120   15129   15144       1   15123   15120   15129   15147       1
   15123   15132  -15150   15138       1   15120   15123   15132   15150       1
   15120   15126  -15138   15150       1   15120   15126   15141   15159       1
   15120   15129  -15144   15159       1   15120   15129   15144   15165       1
   15120   15129   15147   15168       1   15309   15297   15306   15315       1
   15309   15318  -15324   15315       1   15306   15297   15309   15318       1
   15306   15315  -15324   15318       1   15300   15306   15297   15309       1
   15300   15306   15315   15324       1   15297   15306   15315   15324       1
   15297   15309  -15318   15324       1   15291   15273   15288   15297       1
   15291   15300  -15306   15297       1   15291   15300   15306   15315       1
   15288   15273   15291   15300       1   15288   15297  -15306   15300       1
   15288   15297   15306   15315       1   15288   15297   15309   15318       1
   15276   15288   15273   15291       1   15276   15288   15297   15306       1
   15276   15288   15297   15309       1   15273   15288   15297   15306       1
   15273   15288   15297   15309       1   15273   15291  -15300   15306       1
   15267   15252   15273   15288       1   15267   15252   15273   15291       1
   15255   15237   15252   15267       1   15255   15237   15252   15273       1
   15255   15276  -15288   15273       1   15255   15276   15288   15297       1
   15252   15237   15255   15276       1   15252   15273  -15288   15276       1
   15252   15273   15288   15297       1   15252   15273   15291   15300       1
   15249   15234   15246   15258       1   15249   15267   15252   15273       1
   15246   15234   15249   15267       1   15237   15228   15231   15240       1
   15237   15228   15234   15246       1   15237   15228   15234   15249       1
   15237   15252  -15267   15249       1   15237   15252   15273   15288       1
   15237   15252   15273   15291       1   15237   15255  -15276   15288       1
   15234   15228   15231   15240       1   15234   15228   15237   15252       1
   15234   15228   15237   15255       1   15234   15246  -15258   15240       1
   15234   15249  -15267   15252       1   15231   15228   15234   15246       1
   15231   15228   15234   15249       1   15231   15228   15237   15252       1
   15231   15228   15237   15255       1   15231   15240  -15258   15246       1
   15228   15231   15240   15258       1   15228   15234  -15246   15258       1
   15228   15234   15249   15267       1   15228   15237  -15252   15267       1
   15228   15237   15252   15273       1   15228   15237   15255   15276       1
   15417   15405   15414   15423       1   15417   15426  -15432   15423       1
   15414   15405   15417   15426       1   15414   15423  -15432   15426       1
   15408   15414   15405   15417       1   15408   15414   15423   15432       1
   15405   15414   15423   15432       1   15405   15417  -15426   15432       1
   15399   15381   15396   15405       1   15399   15408  -15414   15405       1
   15399   15408   15414   15423       1   15396   15381   15399   15408       1
   15396   15405  -15414   15408       1   15396   15405   15414   15423       1
   15396   15405   15417   15426       1   15384   15396   15381   15399       1
   15384   15396   15405   15414       1   15384   15396   15405   15417       1
   15381   15396   15405   15414       1   15381   15396   15405   15417       1
   15381   15399  -15408   15414       1   15375   15360   15381   15396       1
   15375   15360   15381   15399       1   15363   15345   15360   15375       1
   15363   15345   15360   15381       1   15363   15384  -15396   15381       1
   15363   15384   15396   15405       1   15360   15345   15363   15384       1
   15360   15381  -15396   15384       1   15360   15381   15396   15405       1
   15360   15381   15399   15408       1   15357   15342   15354   15366       1
   15357   15375   15360   15381       1   15354   15342   15357   15375       1
   15345   15336   15339   15348       1   15345   15336   15342   15354       1
   15345   15336   15342   15357       1   15345   15360  -15375   15357       1
   15345   15360   15381   15396       1   15345   15360   15381   15399       1
   15345   15363  -15384   15396       1   15342   15336   15339   15348       1
   15342   15336   15345   15360       1   15342   15336   15345   15363       1
   15342   15354  -15366   15348       1   15342   15357  -15375   15360       1
   15339   15336   15342   15354       1   15339   15336   15342   15357       1
   15339   15336   15345   15360       1   15339   15336   15345   15363       1
   15339   15348  -15366   15354       1   15336   15339   15348   15366       1
   15336   15342  -15354   15366       1   15336   15342   15357   15375       1
   15336   15345  -15360   15375       1   15336   15345   15360   15381       1
   15336   15345   15363   15384       1   15525   15513   15522   15531       1
   15525   15534  -15540   15531       1   15522   15513   15525   15534       1
   15522   15531  -15540   15534       1   15516   15522   15513   15525       1
   15516   15522   15531   15540       1   15513   15522   15531   15540       1
   15513   15525  -15534   15540       1   15507   15489   15504   15513       1
   15507   15516  -15522   15513       1   15507   15516   15522   15531       1
   15504   15489   15507   15516       1   15504   15513  -15522   15516       1
   15504   15513   15522   15531       1   15504   15513   15525   15534       1
   15492   15504   15489   15507       1   15492   15504   15513   15522       1
   15492   15504   15513   15525       1   15489   15504   15513   15522       1
   15489   15504   15513   15525       1   15489   15507  -15516   15522       1
   15483   15468   15489   15504       1   15483   15468   15489   15507       1
   15471   15453   15468   15483       1   15471   15453   15468   15489       1
   15471   15492  -15504   15489       1   15471   15492   15504   15513       1
   15468   15453   15471   15492       1   15468   15489  -15504   15492       1
   15468   15489   15504   15513       1   15468   15489   15507   15516       1
   15465   15450   15462   15474       1   15465   15483   15468   15489       1
   15462   15450   15465   15483       1   15453   15444   15447   15456       1
   15453   15444   15450   15462       1   15453   15444   15450   15465       1
   15453   15468  -15483   15465       1   15453   15468   15489   15504       1
   15453   15468   15489   15507       1   15453   15471  -15492   15504       1
   15450   15444   15447   15456       1   15450   15444   15453   15468       1
   15450   15444   15453   15471       1   15450   15462  -15474   15456       1
   15450   15465  -15483   15468       1   15447   15444   15450   15462       1
   15447   15444   15450   15465       1   15447   15444   15453   15468       1
   15447   15444   15453   15471       1   15447   15456  -15474   15462       1
   15444   15447   15456   15474       1   15444   15450  -15462   15474       1
   15444   15450   15465   15483       1   15444   15453  -15468   15483       1
   15444   15453   15468   15489       1   15444   15453   15471   15492       1
   15633   15621   15630   15639       1   15633   15642  -15648   15639       1
   15630   15621   15633   15642       1   15630   15639  -15648   15642       1
   15624   15630   15621   15633       1   15624   15630   15639   15648       1
   15621   15630   15639   15648       1   15621   15633  -15642   15648       1
   15615   15597   15612   15621       1   15615   15624  -15630   15621       1
   15615   15624   15630   15639       1   15612   15597   15615   15624       1
   15612   15621  -15630   15624       1   15612   15621   15630   15639       1
   15612   15621   15633   15642       1   15600   15612   15597   15615       1
   15600   15612   15621   15630       1   15600   15612   15621   15633       1
   15597   15612   15621   15630       1   15597   15612   15621   15633       1
   15597   15615  -15624   15630       1   15591   15576   15597   15612       1
   15591   15576   15597   15615       1   15579   15561   15576   15591       1
   15579   15561   15576   15597       1   15579   15600  -15612   15597       1
   15579   15600   15612   15621       1   15576   15561   15579   15600       1
   15576   15597  -15612   15600       1   15576   15597   15612   15621       1
   15576   15597   15615   15624       1   15573   15558   15570   15582       1
   15573   15591   15576   15597       1   15570   15558   15573   15591       1
   15561   15552   15555   15564       1   15561   15552   15558   15570       1
   15561   15552   15558   15573       1   15561   15576  -15591   15573       1
   15561   15576   15597   15612       1   15561   15576   15597   15615       1
   15561   15579  -15600   15612       1   15558   15552   15555   15564       1
   15558   15552   15561   15576       1   15558   15552   15561   15579       1
   15558   15570  -15582   15564       1   15558   15573  -15591   15576       1
   15555   15552   15558   15570       1   15555   15552   15558   15573       1
   15555   15552   15561   15576       1   15555   15552   15561   15579       1
   15555   15564  -15582   15570       1   15552   15555   15564   15582       1
   15552   15558  -15570   15582       1   15552   15558   15573   15591       1
   15552   15561  -15576   15591       1   15552   15561   15576   15597       1
   15552   15561   15579   15600       1   15741   15729   15738   15747       1
   15741   15750  -15756   15747       1   15738   15729   15741   15750       1
   15738   15747  -15756   15750       1   15732   15738   15729   15741       1
   15732   15738   15747   15756       1   15729   15738   15747   15756       1
   15729   15741  -15750   15756       1   15723   15705   15720   15729       1
   15723   15732  -15738   15729       1   15723   15732   15738   15747       1
   15720   15705   15723   15732       1   15720   15729  -15738   15732       1
   15720   15729   15738   15747       1   15720   15729   15741   15750       1
   15708   15720   15705   15723       1   15708   15720   15729   15738       1
   15708   15720   15729   15741       1   15705   15720   15729   15738       1
   15705   15720   15729   15741       1   15705   15723  -15732   15738       1
   15699   15684   15705   15720       1   15699   15684   15705   15723       1
   15687   15669   15684   15699       1   15687   15669   15684   15705       1
   15687   15708  -15720   15705       1   15687   15708   15720   15729       1
   15684   15669   15687   15708       1   15684   15705  -15720   15708       1
   15684   15705   15720   15729       1   15684   15705   15723   15732       1
   15681   15666   15678   15690       1   15681   15699   15684   15705       1
   15678   15666   15681   15699       1   15669   15660   15663   15672       1
   15669   15660   15666   15678       1   15669   15660   15666   15681       1
   15669   15684  -15699   15681       1   15669   15684   15705   15720       1
   15669   15684   15705   15723       1   15669   15687  -15708   15720       1
   15666   15660   15663   15672       1   15666   15660   15669   15684       1
   15666   15660   15669   15687       1   15666   15678  -15690   15672       1
   15666   15681  -15699   15684       1   15663   15660   15666   15678       1
   15663   15660   15666   15681       1   15663   15660   15669   15684       1
   15663   15660   15669   15687       1   15663   15672  -15690   15678       1
   15660   15663   15672   15690       1   15660   15666  -15678   15690       1
   15660   15666   15681   15699       1   15660   15669  -15684   15699       1
   15660   15669   15684   15705       1   15660   15669   15687   15708       1
   15849   15837   15846   15855       1   15849   15858  -15864   15855       1
   15846   15837   15849   15858       1   15846   15855  -15864   15858       1
   15840   15846   15837   15849       1   15840   15846   15855   15864       1
   15837   15846   15855   15864       1   15837   15849  -15858   15864       1
   15831   15813   15828   15837       1   15831   15840  -15846   15837       1
   15831   15840   15846   15855       1   15828   15813   15831   15840       1
   15828   15837  -15846   15840       1   15828   15837   15846   15855       1
   15828   15837   15849   15858       1   15816   15828   15813   15831       1
   15816   15828   15837   15846       1   15816   15828   15837   15849       1
   15813   15828   15837   15846       1   15813   15828   15837   15849       1
   15813   15831  -15840   15846       1   15807   15792   15813   15828       1
   15807   15792   15813   15831       1   15795   15777   15792   15807       1
   15795   15777   15792   15813       1   15795   15816  -15828   15813       1
   15795   15816   15828   15837       1   15792   15777   15795   15816       1
   15792   15813  -15828   15816       1   15792   15813   15828   15837       1
   15792   15813   15831   15840       1   15789   15774   15786   15798       1
   15789   15807   15792   15813       1   15786   15774   15789   15807       1
   15777   15768   15771   15780       1   15777   15768   15774   15786       1
   15777   15768   15774   15789       1   15777   15792  -15807   15789       1
   15777   15792   15813   15828       1   15777   15792   15813   15831       1
   15777   15795  -15816   15828       1   15774   15768   15771   15780       1
   15774   15768   15777   15792       1   15774   15768   15777   15795       1
   15774   15786  -15798   15780       1   15774   15789  -15807   15792       1
   15771   15768   15774   15786       1   15771   15768   15774   15789       1
   15771   15768   15777   15792       1   15771   15768   15777   15795       1
   15771   15780  -15798   15786       1   15768   15771   15780   15798       1
   15768   15774  -15786   15798       1   15768   15774   15789   15807       1
   15768   15777  -15792   15807       1   15768   15777   15792   15813       1
   15768   15777   15795   15816       1   15957   15945   15954   15963       1
   15957   15966  -15972   15963       1   15954   15945   15957   15966       1
   15954   15963  -15972   15966       1   15948   15954   15945   15957       1
   15948   15954   15963   15972       1   15945   15954   15963   15972       1
   15945   15957  -15966   15972       1   15939   15921   15936   15945       1
   15939   15948  -15954   15945       1   15939   15948   15954   15963       1
   15936   15921   15939   15948       1   15936   15945  -15954   15948       1
   15936   15945   15954   15963       1   15936   15945   15957   15966       1
   15924   15936   15921   15939       1   15924   15936   15945   15954       1
   15924   15936   15945   15957       1   15921   15936   15945   15954       1
   15921   15936   15945   15957       1   15921   15939  -15948   15954       1
   15915   15900   15921   15936       1   15915   15900   15921   15939       1
   15903   15885   15900   15915       1   15903   15885   15900   15921       1
   15903   15924  -15936   15921       1   15903   15924   15936   15945       1
   15900   15885   15903   15924       1   15900   15921  -15936   15924       1
   15900   15921   15936   15945       1   15900   15921   15939   15948       1
   15897   15882   15894   15906       1   15897   15915   15900   15921       1
   15894   15882   15897   15915       1   15885   15876   15879   15888       1
   15885   15876   15882   15894       1   15885   15876   15882   15897       1
   15885   15900  -15915   15897       1   15885   15900   15921   15936       1
   15885   15900   15921   15939       1   15885   15903  -15924   15936       1
   15882   15876   15879   15888       1   15882   15876   15885   15900       1
   15882   15876   15885   15903       1   15882   15894  -15906   15888       1
   15882   15897  -15915   15900       1   15879   15876   15882   15894       1
   15879   15876   15882   15897       1   15879   15876   15885   15900       1
   15879   15876   15885   15903       1   15879   15888  -15906   15894       1
   15876   15879   15888   15906       1   15876   15882  -15894   15906       1
   15876   15882   15897   15915       1   15876   15885  -15900   15915       1
   15876   15885   15900   15921       1   15876   15885   15903   15924       1
   16065   16053   16062   16071       1   16065   16074  -16080   16071       1
   16062   16053   16065   16074       1   16062   16071  -16080   16074       1
   16056   16062   16053   16065       1   16056   16062   16071   16080       1
   16053   16062   16071   16080       1   16053   16065  -16074   16080       1
   16047   16029   16044   16053       1   16047   16056  -16062   16053       1
   16047   16056   16062   16071       1   16044   16029   16047   16056       1
   16044   16053  -16062   16056       1   16044   16053   16062   16071       1
   16044   16053   16065   16074       1   16032   16044   16029   16047       1
   16032   16044   16053   16062       1   16032   16044   16053   16065       1
   16029   16044   16053   16062       1   16029   16044   16053   16065       1
   16029   16047  -16056   16062       1   16023   16008   16029   16044       1
   16023   16008   16029   16047       1   16011   15993   16008   16023       1
   16011   15993   16008   16029       1   16011   16032  -16044   16029       1
   16011   16032   16044   16053       1   16008   15993   16011   16032       1
   16008   16029  -16044   16032       1   16008   16029   16044   16053       1
   16008   16029   16047   16056       1   16005   15990   16002   16014       1
   16005   16023   16008   16029       1   16002   15990   16005   16023       1
   15993   15984   15987   15996       1   15993   15984   15990   16002       1
   15993   15984   15990   16005       1   15993   16008  -16023   16005       1
   15993   16008   16029   16044       1   15993   16008   16029   16047       1
   15993   16011  -16032   16044       1   15990   15984   15987   15996       1
   15990   15984   15993   16008       1   15990   15984   15993   16011       1
   15990   16002  -16014   15996       1   15990   16005  -16023   16008       1
   15987   15984   15990   16002       1   15987   15984   15990   16005       1
   15987   15984   15993   16008       1   15987   15984   15993   16011       1
   15987   15996  -16014   16002       1   15984   15987   15996   16014       1
   15984   15990  -16002   16014       1   15984   15990   16005   16023       1
   15984   15993  -16008   16023       1   15984   15993   16008   16029       1
   15984   15993   16011   16032       1   16173   16161   16170   16179       1
   16173   16182  -16188   16179       1   16170   16161   16173   16182       1
   16170   16179  -16188   16182       1   16164   16170   16161   16173       1
   16164   16170   16179   16188       1   16161   16170   16179   16188       1
   16161   16173  -16182   16188       1   16155   16137   16152   16161       1
   16155   16164  -16170   16161       1   16155   16164   16170   16179       1
   16152   16137   16155   16164       1   16152   16161  -16170   16164       1
   16152   16161   16170   16179       1   16152   16161   16173   16182       1
   16140   16152   16137   16155       1   16140   16152   16161   16170       1
   16140   16152   16161   16173       1   16137   16152   16161   16170       1
   16137   16152   16161   16173       1   16137   16155  -16164   16170       1
   16131   16116   16137   16152       1   16131   16116   16137   16155       1
   16119   16101   16116   16131       1   16119   16101   16116   16137       1
   16119   16140  -16152   16137       1   16119   16140   16152   16161       1
   16116   16101   16119   16140       1   16116   16137  -16152   16140       1
   16116   16137   16152   16161       1   16116   16137   16155   16164       1
   16113   16098   16110   16122       1   16113   16131   16116   16137       1
   16110   16098   16113   16131       1   16101   16092   16095   16104       1
   16101   16092   16098   16110       1   16101   16092   16098   16113       1
   16101   16116  -16131   16113       1   16101   16116   16137   16152       1
   16101   16116   16137   16155       1   16101   16119  -16140   16152       1
   16098   16092   16095   16104       1   16098   16092   16101   16116       1
   16098   16092   16101   16119       1   16098   16110  -16122   16104       1
   16098   16113  -16131   16116       1   16095   16092   16098   16110       1
   16095   16092   16098   16113       1   16095   16092   16101   16116       1
   16095   16092   16101   16119       1   16095   16104  -16122   16110       1
   16092   16095   16104   16122       1   16092   16098  -16110   16122       1
   16092   16098   16113   16131       1   16092   16101  -16116   16131       1
   16092   16101   16116   16137       1   16092   16101   16119   16140       1
   16281   16269   16278   16287       1   16281   16290  -16296   16287       1
   16278   16269   16281   16290       1   16278   16287  -16296   16290       1
   16272   16278   16269   16281       1   16272   16278   16287   16296       1
   16269   16278   16287   16296       1   16269   16281  -16290   16296       1
   16263   16245   16260   16269       1   16263   16272  -16278   16269       1
   16263   16272   16278   16287       1   16260   16245   16263   16272       1
   16260   16269  -16278   16272       1   16260   16269   16278   16287       1
   16260   16269   16281   16290       1   16248   16260   16245   16263       1
   16248   16260   16269   16278       1   16248   16260   16269   16281       1
   16245   16260   16269   16278       1   16245   16260   16269   16281       1
   16245   16263  -16272   16278       1   16239   16224   16245   16260       1
   16239   16224   16245   16263       1   16227   16209   16224   16239       1
   16227   16209   16224   16245       1   16227   16248  -16260   16245       1
   16227   16248   16260   16269       1   16224   16209   16227   16248       1
   16224   16245  -16260   16248       1   16224   16245   16260   16269       1
   16224   16245   16263   16272       1   16221   16206   16218   16230       1
   16221   16239   16224   16245       1   16218   16206   16221   16239       1
   16209   16200   16203   16212       1   16209   16200   16206   16218       1
   16209   16200   16206   16221       1   16209   16224  -16239   16221       1
   16209   16224   16245   16260       1   16209   16224   16245   16263       1
   16209   16227  -16248   16260       1   16206   16200   16203   16212       1
   16206   16200   16209   16224       1   16206   16200   16209   16227       1
   16206   16218  -16230   16212       1   16206   16221  -16239   16224       1
   16203   16200   16206   16218       1   16203   16200   16206   16221       1
   16203   16200   16209   16224       1   16203   16200   16209   16227       1
   16203   16212  -16230   16218       1   16200   16203   16212   16230       1
   16200   16206  -16218   16230       1   16200   16206   16221   16239       1
   16200   16209  -16224   16239       1   16200   16209   16224   16245       1
   16200   16209   16227   16248       1   16389   16377   16386   16395       1
   16389   16398  -16404   16395       1   16386   16377   16389   16398       1
   16386   16395  -16404   16398       1   16380   16386   16377   16389       1
   16380   16386   16395   16404       1   16377   16386   16395   16404       1
   16377   16389  -16398   16404       1   16371   16353   16368   16377       1
   16371   16380  -16386   16377       1   16371   16380   16386   16395       1
   16368   16353   16371   16380       1   16368   16377  -16386   16380       1
   16368   16377   16386   16395       1   16368   16377   16389   16398       1
   16356   16368   16353   16371       1   16356   16368   16377   16386       1
   16356   16368   16377   16389       1   16353   16368   16377   16386       1
   16353   16368   16377   16389       1   16353   16371  -16380   16386       1
   16347   16332   16353   16368       1   16347   16332   16353   16371       1
   16335   16317   16332   16347       1   16335   16317   16332   16353       1
   16335   16356  -16368   16353       1   16335   16356   16368   16377       1
   16332   16317   16335   16356       1   16332   16353  -16368   16356       1
   16332   16353   16368   16377       1   16332   16353   16371   16380       1
   16329   16314   16326   16338       1   16329   16347   16332   16353       1
   16326   16314   16329   16347       1   16317   16308   16311   16320       1
   16317   16308   16314   16326       1   16317   16308   16314   16329       1
   16317   16332  -16347   16329       1   16317   16332   16353   16368       1
   16317   16332   16353   16371       1   16317   16335  -16356   16368       1
   16314   16308   16311   16320       1   16314   16308   16317   16332       1
   16314   16308   16317   16335       1   16314   16326  -16338   16320       1
   16314   16329  -16347   16332       1   16311   16308   16314   16326       1
   16311   16308   16314   16329       1   16311   16308   16317   16332       1
   16311   16308   16317   16335       1   16311   16320  -16338   16326       1
   16308   16311   16320   16338       1   16308   16314  -16326   16338       1
   16308   16314   16329   16347       1   16308   16317  -16332   16347       1
   16308   16317   16332   16353       1   16308   16317   16335   16356       1
   16497   16485   16494   16503       1   16497   16506  -16512   16503       1
   16494   16485   16497   16506       1   16494   16503  -16512   16506       1
   16488   16494   16485   16497       1   16488   16494   16503   16512       1
   16485   16494   16503   16512       1   16485   16497  -16506   16512       1
   16479   16461   16476   16485       1   16479   16488  -16494   16485       1
   16479   16488   16494   16503       1   16476   16461   16479   16488       1
   16476   16485  -16494   16488       1   16476   16485   16494   16503       1
   16476   16485   16497   16506       1   16464   16476   16461   16479       1
   16464   16476   16485   16494       1   16464   16476   16485   16497       1
   16461   16476   16485   16494       1   16461   16476   16485   16497       1
   16461   16479  -16488   16494       1   16455   16440   16461   16476       1
   16455   16440   16461   16479       1   16443   16425   16440   16455       1
   16443   16425   16440   16461       1   16443   16464  -16476   16461       1
   16443   16464   16476   16485       1   16440   16425   16443   16464       1
   16440   16461  -16476   16464       1   16440   16461   16476   16485       1
   16440   16461   16479   16488       1   16437   16422   16434   16446       1
   16437   16455   16440   16461       1   16434   16422   16437   16455       1
   16425   16416   16419   16428       1   16425   16416   16422   16434       1
   16425   16416   16422   16437       1   16425   16440  -16455   16437       1
   16425   16440   16461   16476       1   16425   16440   16461   16479       1
   16425   16443  -16464   16476       1   16422   16416   16419   16428       1
   16422   16416   16425   16440       1   16422   16416   16425   16443       1
   16422   16434  -16446   16428       1   16422   16437  -16455   16440       1
   16419   16416   16422   16434       1   16419   16416   16422   16437       1
   16419   16416   16425   16440       1   16419   16416   16425   16443       1
   16419   16428  -16446   16434       1   16416   16419   16428   16446       1
   16416   16422  -16434   16446       1   16416   16422   16437   16455       1
   16416   16425  -16440   16455       1   16416   16425   16440   16461       1
   16416   16425   16443   16464       1   16605   16593   16602   16611       1
   16605   16614  -16620   16611       1   16602   16593   16605   16614       1
   16602   16611  -16620   16614       1   16596   16602   16593   16605       1
   16596   16602   16611   16620       1   16593   16602   16611   16620       1
   16593   16605  -16614   16620       1   16587   16569   16584   16593       1
   16587   16596  -16602   16593       1   16587   16596   16602   16611       1
   16584   16569   16587   16596       1   16584   16593  -16602   16596       1
   16584   16593   16602   16611       1   16584   16593   16605   16614       1
   16572   16584   16569   16587       1   16572   16584   16593   16602       1
   16572   16584   16593   16605       1   16569   16584   16593   16602       1
   16569   16584   16593   16605       1   16569   16587  -16596   16602       1
   16563   16548   16569   16584       1   16563   16548   16569   16587       1
   16551   16533   16548   16563       1   16551   16533   16548   16569       1
   16551   16572  -16584   16569       1   16551   16572   16584   16593       1
   16548   16533   16551   16572       1   16548   16569  -16584   16572       1
   16548   16569   16584   16593       1   16548   16569   16587   16596       1
   16545   16530   16542   16554       1   16545   16563   16548   16569       1
   16542   16530   16545   16563       1   16533   16524   16527   16536       1
   16533   16524   16530   16542       1   16533   16524   16530   16545       1
   16533   16548  -16563   16545       1   16533   16548   16569   16584       1
   16533   16548   16569   16587       1   16533   16551  -16572   16584       1
   16530   16524   16527   16536       1   16530   16524   16533   16548       1
   16530   16524   16533   16551       1   16530   16542  -16554   16536       1
   16530   16545  -16563   16548       1   16527   16524   16530   16542       1
   16527   16524   16530   16545       1   16527   16524   16533   16548       1
   16527   16524   16533   16551       1   16527   16536  -16554   16542       1
   16524   16527   16536   16554       1   16524   16530  -16542   16554       1
   16524   16530   16545   16563       1   16524   16533  -16548   16563       1
   16524   16533   16548   16569       1   16524   16533   16551   16572       1
   16713   16701   16710   16719       1   16713   16722  -16728   16719       1
   16710   16701   16713   16722       1   16710   16719  -16728   16722       1
   16704   16710   16701   16713       1   16704   16710   16719   16728       1
   16701   16710   16719   16728       1   16701   16713  -16722   16728       1
   16695   16677   16692   16701       1   16695   16704  -16710   16701       1
   16695   16704   16710   16719       1   16692   16677   16695   16704       1
   16692   16701  -16710   16704       1   16692   16701   16710   16719       1
   16692   16701   16713   16722       1   16680   16692   16677   16695       1
   16680   16692   16701   16710       1   16680   16692   16701   16713       1
   16677   16692   16701   16710       1   16677   16692   16701   16713       1
   16677   16695  -16704   16710       1   16671   16656   16677   16692       1
   16671   16656   16677   16695       1   16659   16641   16656   16671       1
   16659   16641   16656   16677       1   16659   16680  -16692   16677       1
   16659   16680   16692   16701       1   16656   16641   16659   16680       1
   16656   16677  -16692   16680       1   16656   16677   16692   16701       1
   16656   16677   16695   16704       1   16653   16638   16650   16662       1
   16653   16671   16656   16677       1   16650   16638   16653   16671       1
   16641   16632   16635   16644       1   16641   16632   16638   16650       1
   16641   16632   16638   16653       1   16641   16656  -16671   16653       1
   16641   16656   16677   16692       1   16641   16656   16677   16695       1
   16641   16659  -16680   16692       1   16638   16632   16635   16644       1
   16638   16632   16641   16656       1   16638   16632   16641   16659       1
   16638   16650  -16662   16644       1   16638   16653  -16671   16656       1
   16635   16632   16638   16650       1   16635   16632   16638   16653       1
   16635   16632   16641   16656       1   16635   16632   16641   16659       1
   16635   16644  -16662   16650       1   16632   16635   16644   16662       1
   16632   16638  -16650   16662       1   16632   16638   16653   16671       1
   16632   16641  -16656   16671       1   16632   16641   16656   16677       1
   16632   16641   16659   16680       1   16821   16809   16818   16827       1
   16821   16830  -16836   16827       1   16818   16809   16821   16830       1
   16818   16827  -16836   16830       1   16812   16818   16809   16821       1
   16812   16818   16827   16836       1   16809   16818   16827   16836       1
   16809   16821  -16830   16836       1   16803   16785   16800   16809       1
   16803   16812  -16818   16809       1   16803   16812   16818   16827       1
   16800   16785   16803   16812       1   16800   16809  -16818   16812       1
   16800   16809   16818   16827       1   16800   16809   16821   16830       1
   16788   16800   16785   16803       1   16788   16800   16809   16818       1
   16788   16800   16809   16821       1   16785   16800   16809   16818       1
   16785   16800   16809   16821       1   16785   16803  -16812   16818       1
   16779   16764   16785   16800       1   16779   16764   16785   16803       1
   16767   16749   16764   16779       1   16767   16749   16764   16785       1
   16767   16788  -16800   16785       1   16767   16788   16800   16809       1
   16764   16749   16767   16788       1   16764   16785  -16800   16788       1
   16764   16785   16800   16809       1   16764   16785   16803   16812       1
   16761   16746   16758   16770       1   16761   16779   16764   16785       1
   16758   16746   16761   16779       1   16749   16740   16743   16752       1
   16749   16740   16746   16758       1   16749   16740   16746   16761       1
   16749   16764  -16779   16761       1   16749   16764   16785   16800       1
   16749   16764   16785   16803       1   16749   16767  -16788   16800       1
   16746   16740   16743   16752       1   16746   16740   16749   16764       1
   16746   16740   16749   16767       1   16746   16758  -16770   16752       1
   16746   16761  -16779   16764       1   16743   16740   16746   16758       1
   16743   16740   16746   16761       1   16743   16740   16749   16764       1
   16743   16740   16749   16767       1   16743   16752  -16770   16758       1
   16740   16743   16752   16770       1   16740   16746  -16758   16770       1
   16740   16746   16761   16779       1   16740   16749  -16764   16779       1
   16740   16749   16764   16785       1   16740   16749   16767   16788       1
   16929   16917   16926   16935       1   16929   16938  -16944   16935       1
   16926   16917   16929   16938       1   16926   16935  -16944   16938       1
   16920   16926   16917   16929       1   16920   16926   16935   16944       1
   16917   16926   16935   16944       1   16917   16929  -16938   16944       1
   16911   16893   16908   16917       1   16911   16920  -16926   16917       1
   16911   16920   16926   16935       1   16908   16893   16911   16920       1
   16908   16917  -16926   16920       1   16908   16917   16926   16935       1
   16908   16917   16929   16938       1   16896   16908   16893   16911       1
   16896   16908   16917   16926       1   16896   16908   16917   16929       1
   16893   16908   16917   16926       1   16893   16908   16917   16929       1
   16893   16911  -16920   16926       1   16887   16872   16893   16908       1
   16887   16872   16893   16911       1   16875   16857   16872   16887       1
   16875   16857   16872   16893       1   16875   16896  -16908   16893       1
   16875   16896   16908   16917       1   16872   16857   16875   16896       1
   16872   16893  -16908   16896       1   16872   16893   16908   16917       1
   16872   16893   16911   16920       1   16869   16854   16866   16878       1
   16869   16887   16872   16893       1   16866   16854   16869   16887       1
   16857   16848   16851   16860       1   16857   16848   16854   16866       1
   16857   16848   16854   16869       1   16857   16872  -16887   16869       1
   16857   16872   16893   16908       1   16857   16872   16893   16911       1
   16857   16875  -16896   16908       1   16854   16848   16851   16860       1
   16854   16848   16857   16872       1   16854   16848   16857   16875       1
   16854   16866  -16878   16860       1   16854   16869  -16887   16872       1
   16851   16848   16854   16866       1   16851   16848   16854   16869       1
   16851   16848   16857   16872       1   16851   16848   16857   16875       1
   16851   16860  -16878   16866       1   16848   16851   16860   16878       1
   16848   16854  -16866   16878       1   16848   16854   16869   16887       1
   16848   16857  -16872   16887       1   16848   16857   16872   16893       1
   16848   16857   16875   16896       1   17037   17025   17034   17043       1
   17037   17046  -17052   17043       1   17034   17025   17037   17046       1
   17034   17043  -17052   17046       1   17028   17034   17025   17037       1
   17028   17034   17043   17052       1   17025   17034   17043   17052       1
   17025   17037  -17046   17052       1   17019   17001   17016   17025       1
   17019   17028  -17034   17025       1   17019   17028   17034   17043       1
   17016   17001   17019   17028       1   17016   17025  -17034   17028       1
   17016   17025   17034   17043       1   17016   17025   17037   17046       1
   17004   17016   17001   17019       1   17004   17016   17025   17034       1
   17004   17016   17025   17037       1   17001   17016   17025   17034       1
   17001   17016   17025   17037       1   17001   17019  -17028   17034       1
   16995   16980   17001   17016       1   16995   16980   17001   17019       1
   16983   16965   16980   16995       1   16983   16965   16980   17001       1
   16983   17004  -17016   17001       1   16983   17004   17016   17025       1
   16980   16965   16983   17004       1   16980   17001  -17016   17004       1
   16980   17001   17016   17025       1   16980   17001   17019   17028       1
   16977   16962   16974   16986       1   16977   16995   16980   17001       1
   16974   16962   16977   16995       1   16965   16956   16959   16968       1
   16965   16956   16962   16974       1   16965   16956   16962   16977       1
   16965   16980  -16995   16977       1   16965   16980   17001   17016       1
   16965   16980   17001   17019       1   16965   16983  -17004   17016       1
   16962   16956   16959   16968       1   16962   16956   16965   16980       1
   16962   16956   16965   16983       1   16962   16974  -16986   16968       1
   16962   16977  -16995   16980       1   16959   16956   16962   16974       1
   16959   16956   16962   16977       1   16959   16956   16965   16980       1
   16959   16956   16965   16983       1   16959   16968  -16986   16974       1
   16956   16959   16968   16986       1   16956   16962  -16974   16986       1
   16956   16962   16977   16995       1   16956   16965  -16980   16995       1
   16956   16965   16980   17001       1   16956   16965   16983   17004       1
   17145   17133   17142   17151       1   17145   17154  -17160   17151       1
   17142   17133   17145   17154       1   17142   17151  -17160   17154       1
   17136   17142   17133   17145       1   17136   17142   17151   17160       1
   17133   17142   17151   17160       1   17133   17145  -17154   17160       1
   17127   17109   17124   17133       1   17127   17136  -17142   17133       1
   17127   17136   17142   17151       1   17124   17109   17127   17136       1
   17124   17133  -17142   17136       1   17124   17133   17142   17151       1
   17124   17133   17145   17154       1   17112   17124   17109   17127       1
   17112   17124   17133   17142       1   17112   17124   17133   17145       1
   17109   17124   17133   17142       1   17109   17124   17133   17145       1
   17109   17127  -17136   17142       1   17103   17088   17109   17124       1
   17103   17088   17109   17127       1   17091   17073   17088   17103       1
   17091   17073   17088   17109       1   17091   17112  -17124   17109       1
   17091   17112   17124   17133       1   17088   17073   17091   17112       1
   17088   17109  -17124   17112       1   17088   17109   17124   17133       1
   17088   17109   17127   17136       1   17085   17070   17082   17094       1
   17085   17103   17088   17109       1   17082   17070   17085   17103       1
   17073   17064   17067   17076       1   17073   17064   17070   17082       1
   17073   17064   17070   17085       1   17073   17088  -17103   17085       1
   17073   17088   17109   17124       1   17073   17088   17109   17127       1
   17073   17091  -17112   17124       1   17070   17064   17067   17076       1
   17070   17064   17073   17088       1   17070   17064   17073   17091       1
   17070   17082  -17094   17076       1   17070   17085  -17103   17088       1
   17067   17064   17070   17082       1   17067   17064   17070   17085       1
   17067   17064   17073   17088       1   17067   17064   17073   17091       1
   17067   17076  -17094   17082       1   17064   17067   17076   17094       1
   17064   17070  -17082   17094       1   17064   17070   17085   17103       1
   17064   17073  -17088   17103       1   17064   17073   17088   17109       1
   17064   17073   17091   17112       1   17253   17241   17250   17259       1
   17253   17262  -17268   17259       1   17250   17241   17253   17262       1
   17250   17259  -17268   17262       1   17244   17250   17241   17253       1
   17244   17250   17259   17268       1   17241   17250   17259   17268       1
   17241   17253  -17262   17268       1   17235   17217   17232   17241       1
   17235   17244  -17250   17241       1   17235   17244   17250   17259       1
   17232   17217   17235   17244       1   17232   17241  -17250   17244       1
   17232   17241   17250   17259       1   17232   17241   17253   17262       1
   17220   17232   17217   17235       1   17220   17232   17241   17250       1
   17220   17232   17241   17253       1   17217   17232   17241   17250       1
   17217   17232   17241   17253       1   17217   17235  -17244   17250       1
   17211   17196   17217   17232       1   17211   17196   17217   17235       1
   17199   17181   17196   17211       1   17199   17181   17196   17217       1
   17199   17220  -17232   17217       1   17199   17220   17232   17241       1
   17196   17181   17199   17220       1   17196   17217  -17232   17220       1
   17196   17217   17232   17241       1   17196   17217   17235   17244       1
   17193   17178   17190   17202       1   17193   17211   17196   17217       1
   17190   17178   17193   17211       1   17181   17172   17175   17184       1
   17181   17172   17178   17190       1   17181   17172   17178   17193       1
   17181   17196  -17211   17193       1   17181   17196   17217   17232       1
   17181   17196   17217   17235       1   17181   17199  -17220   17232       1
   17178   17172   17175   17184       1   17178   17172   17181   17196       1
   17178   17172   17181   17199       1   17178   17190  -17202   17184       1
   17178   17193  -17211   17196       1   17175   17172   17178   17190       1
   17175   17172   17178   17193       1   17175   17172   17181   17196       1
   17175   17172   17181   17199       1   17175   17184  -17202   17190       1
   17172   17175   17184   17202       1   17172   17178  -17190   17202       1
   17172   17178   17193   17211       1   17172   17181  -17196   17211       1
   17172   17181   17196   17217       1   17172   17181   17199   17220       1
   17361   17349   17358   17367       1   17361   17370  -17376   17367       1
   17358   17349   17361   17370       1   17358   17367  -17376   17370       1
   17352   17358   17349   17361       1   17352   17358   17367   17376       1
   17349   17358   17367   17376       1   17349   17361  -17370   17376       1
   17343   17325   17340   17349       1   17343   17352  -17358   17349       1
   17343   17352   17358   17367       1   17340   17325   17343   17352       1
   17340   17349  -17358   17352       1   17340   17349   17358   17367       1
   17340   17349   17361   17370       1   17328   17340   17325   17343       1
   17328   17340   17349   17358       1   17328   17340   17349   17361       1
   17325   17340   17349   17358       1   17325   17340   17349   17361       1
   17325   17343  -17352   17358       1   17319   17304   17325   17340       1
   17319   17304   17325   17343       1   17307   17289   17304   17319       1
   17307   17289   17304   17325       1   17307   17328  -17340   17325       1
   17307   17328   17340   17349       1   17304   17289   17307   17328       1
   17304   17325  -17340   17328       1   17304   17325   17340   17349       1
   17304   17325   17343   17352       1   17301   17286   17298   17310       1
   17301   17319   17304   17325       1   17298   17286   17301   17319       1
   17289   17280   17283   17292       1   17289   17280   17286   17298       1
   17289   17280   17286   17301       1   17289   17304  -17319   17301       1
   17289   17304   17325   17340       1   17289   17304   17325   17343       1
   17289   17307  -17328   17340       1   17286   17280   17283   17292       1
   17286   17280   17289   17304       1   17286   17280   17289   17307       1
   17286   17298  -17310   17292       1   17286   17301  -17319   17304       1
   17283   17280   17286   17298       1   17283   17280   17286   17301       1
   17283   17280   17289   17304       1   17283   17280   17289   17307       1
   17283   17292  -17310   17298       1   17280   17283   17292   17310       1
   17280   17286  -17298   17310       1   17280   17286   17301   17319       1
   17280   17289  -17304   17319       1   17280   17289   17304   17325       1
   17280   17289   17307   17328       1   17469   17457   17466   17475       1
   17469   17478  -17484   17475       1   17466   17457   17469   17478       1
   17466   17475  -17484   17478       1   17460   17466   17457   17469       1
   17460   17466   17475   17484       1   17457   17466   17475   17484       1
   17457   17469  -17478   17484       1   17451   17433   17448   17457       1
   17451   17460  -17466   17457       1   17451   17460   17466   17475       1
   17448   17433   17451   17460       1   17448   17457  -17466   17460       1
   17448   17457   17466   17475       1   17448   17457   17469   17478       1
   17436   17448   17433   17451       1   17436   17448   17457   17466       1
   17436   17448   17457   17469       1   17433   17448   17457   17466       1
   17433   17448   17457   17469       1   17433   17451  -17460   17466       1
   17427   17412   17433   17448       1   17427   17412   17433   17451       1
   17415   17397   17412   17427       1   17415   17397   17412   17433       1
   17415   17436  -17448   17433       1   17415   17436   17448   17457       1
   17412   17397   17415   17436       1   17412   17433  -17448   17436       1
   17412   17433   17448   17457       1   17412   17433   17451   17460       1
   17409   17394   17406   17418       1   17409   17427   17412   17433       1
   17406   17394   17409   17427       1   17397   17388   17391   17400       1
   17397   17388   17394   17406       1   17397   17388   17394   17409       1
   17397   17412  -17427   17409       1   17397   17412   17433   17448       1
   17397   17412   17433   17451       1   17397   17415  -17436   17448       1
   17394   17388   17391   17400       1   17394   17388   17397   17412       1
   17394   17388   17397   17415       1   17394   17406  -17418   17400       1
   17394   17409  -17427   17412       1   17391   17388   17394   17406       1
   17391   17388   17394   17409       1   17391   17388   17397   17412       1
   17391   17388   17397   17415       1   17391   17400  -17418   17406       1
   17388   17391   17400   17418       1   17388   17394  -17406   17418       1
   17388   17394   17409   17427       1   17388   17397  -17412   17427       1
   17388   17397   17412   17433       1   17388   17397   17415   17436       1
   17577   17565   17574   17583       1   17577   17586  -17592   17583       1
   17574   17565   17577   17586       1   17574   17583  -17592   17586       1
   17568   17574   17565   17577       1   17568   17574   17583   17592       1
   17565   17574   17583   17592       1   17565   17577  -17586   17592       1
   17559   17541   17556   17565       1   17559   17568  -17574   17565       1
   17559   17568   17574   17583       1   17556   17541   17559   17568       1
   17556   17565  -17574   17568       1   17556   17565   17574   17583       1
   17556   17565   17577   17586       1   17544   17556   17541   17559       1
   17544   17556   17565   17574       1   17544   17556   17565   17577       1
   17541   17556   17565   17574       1   17541   17556   17565   17577       1
   17541   17559  -17568   17574       1   17535   17520   17541   17556       1
   17535   17520   17541   17559       1   17523   17505   17520   17535       1
   17523   17505   17520   17541       1   17523   17544  -17556   17541       1
   17523   17544   17556   17565       1   17520   17505   17523   17544       1
   17520   17541  -17556   17544       1   17520   17541   17556   17565       1
   17520   17541   17559   17568       1   17517   17502   17514   17526       1
   17517   17535   17520   17541       1   17514   17502   17517   17535       1
   17505   17496   17499   17508       1   17505   17496   17502   17514       1
   17505   17496   17502   17517       1   17505   17520  -17535   17517       1
   17505   17520   17541   17556       1   17505   17520   17541   17559       1
   17505   17523  -17544   17556       1   17502   17496   17499   17508       1
   17502   17496   17505   17520       1   17502   17496   17505   17523       1
   17502   17514  -17526   17508       1   17502   17517  -17535   17520       1
   17499   17496   17502   17514       1   17499   17496   17502   17517       1
   17499   17496   17505   17520       1   17499   17496   17505   17523       1
   17499   17508  -17526   17514       1   17496   17499   17508   17526       1
   17496   17502  -17514   17526       1   17496   17502   17517   17535       1
   17496   17505  -17520   17535       1   17496   17505   17520   17541       1
   17496   17505   17523   17544       1   17685   17673   17682   17691       1
   17685   17694  -17700   17691       1   17682   17673   17685   17694       1
   17682   17691  -17700   17694       1   17676   17682   17673   17685       1
   17676   17682   17691   17700       1   17673   17682   17691   17700       1
   17673   17685  -17694   17700       1   17667   17649   17664   17673       1
   17667   17676  -17682   17673       1   17667   17676   17682   17691       1
   17664   17649   17667   17676       1   17664   17673  -17682   17676       1
   17664   17673   17682   17691       1   17664   17673   17685   17694       1
   17652   17664   17649   17667       1   17652   17664   17673   17682       1
   17652   17664   17673   17685       1   17649   17664   17673   17682       1
   17649   17664   17673   17685       1   17649   17667  -17676   17682       1
   17643   17628   17649   17664       1   17643   17628   17649   17667       1
   17631   17613   17628   17643       1   17631   17613   17628   17649       1
   17631   17652  -17664   17649       1   17631   17652   17664   17673       1
   17628   17613   17631   17652       1   17628   17649  -17664   17652       1
   17628   17649   17664   17673       1   17628   17649   17667   17676       1
   17625   17610   17622   17634       1   17625   17643   17628   17649       1
   17622   17610   17625   17643       1   17613   17604   17607   17616       1
   17613   17604   17610   17622       1   17613   17604   17610   17625       1
   17613   17628  -17643   17625       1   17613   17628   17649   17664       1
   17613   17628   17649   17667       1   17613   17631  -17652   17664       1
   17610   17604   17607   17616       1   17610   17604   17613   17628       1
   17610   17604   17613   17631       1   17610   17622  -17634   17616       1
   17610   17625  -17643   17628       1   17607   17604   17610   17622       1
   17607   17604   17610   17625       1   17607   17604   17613   17628       1
   17607   17604   17613   17631       1   17607   17616  -17634   17622       1
   17604   17607   17616   17634       1   17604   17610  -17622   17634       1
   17604   17610   17625   17643       1   17604   17613  -17628   17643       1
   17604   17613   17628   17649       1   17604   17613   17631   17652       1
   17793   17781   17790   17799       1   17793   17802  -17808   17799       1
   17790   17781   17793   17802       1   17790   17799  -17808   17802       1
   17784   17790   17781   17793       1   17784   17790   17799   17808       1
   17781   17790   17799   17808       1   17781   17793  -17802   17808       1
   17775   17757   17772   17781       1   17775   17784  -17790   17781       1
   17775   17784   17790   17799       1   17772   17757   17775   17784       1
   17772   17781  -17790   17784       1   17772   17781   17790   17799       1
   17772   17781   17793   17802       1   17760   17772   17757   17775       1
   17760   17772   17781   17790       1   17760   17772   17781   17793       1
   17757   17772   17781   17790       1   17757   17772   17781   17793       1
   17757   17775  -17784   17790       1   17751   17736   17757   17772       1
   17751   17736   17757   17775       1   17739   17721   17736   17751       1
   17739   17721   17736   17757       1   17739   17760  -17772   17757       1
   17739   17760   17772   17781       1   17736   17721   17739   17760       1
   17736   17757  -17772   17760       1   17736   17757   17772   17781       1
   17736   17757   17775   17784       1   17733   17718   17730   17742       1
   17733   17751   17736   17757       1   17730   17718   17733   17751       1
   17721   17712   17715   17724       1   17721   17712   17718   17730       1
   17721   17712   17718   17733       1   17721   17736  -17751   17733       1
   17721   17736   17757   17772       1   17721   17736   17757   17775       1
   17721   17739  -17760   17772       1   17718   17712   17715   17724       1
   17718   17712   17721   17736       1   17718   17712   17721   17739       1
   17718   17730  -17742   17724       1   17718   17733  -17751   17736       1
   17715   17712   17718   17730       1   17715   17712   17718   17733       1
   17715   17712   17721   17736       1   17715   17712   17721   17739       1
   17715   17724  -17742   17730       1   17712   17715   17724   17742       1
   17712   17718  -17730   17742       1   17712   17718   17733   17751       1
   17712   17721  -17736   17751       1   17712   17721   17736   17757       1
   17712   17721   17739   17760       1   17901   17889   17898   17907       1
   17901   17910  -17916   17907       1   17898   17889   17901   17910       1
   17898   17907  -17916   17910       1   17892   17898   17889   17901       1
   17892   17898   17907   17916       1   17889   17898   17907   17916       1
   17889   17901  -17910   17916       1   17883   17865   17880   17889       1
   17883   17892  -17898   17889       1   17883   17892   17898   17907       1
   17880   17865   17883   17892       1   17880   17889  -17898   17892       1
   17880   17889   17898   17907       1   17880   17889   17901   17910       1
   17868   17880   17865   17883       1   17868   17880   17889   17898       1
   17868   17880   17889   17901       1   17865   17880   17889   17898       1
   17865   17880   17889   17901       1   17865   17883  -17892   17898       1
   17859   17844   17865   17880       1   17859   17844   17865   17883       1
   17847   17829   17844   17859       1   17847   17829   17844   17865       1
   17847   17868  -17880   17865       1   17847   17868   17880   17889       1
   17844   17829   17847   17868       1   17844   17865  -17880   17868       1
   17844   17865   17880   17889       1   17844   17865   17883   17892       1
   17841   17826   17838   17850       1   17841   17859   17844   17865       1
   17838   17826   17841   17859       1   17829   17820   17823   17832       1
   17829   17820   17826   17838       1   17829   17820   17826   17841       1
   17829   17844  -17859   17841       1   17829   17844   17865   17880       1
   17829   17844   17865   17883       1   17829   17847  -17868   17880       1
   17826   17820   17823   17832       1   17826   17820   17829   17844       1
   17826   17820   17829   17847       1   17826   17838  -17850   17832       1
   17826   17841  -17859   17844       1   17823   17820   17826   17838       1
   17823   17820   17826   17841       1   17823   17820   17829   17844       1
   17823   17820   17829   17847       1   17823   17832  -17850   17838       1
   17820   17823   17832   17850       1   17820   17826  -17838   17850       1
   17820   17826   17841   17859       1   17820   17829  -17844   17859       1
   17820   17829   17844   17865       1   17820   17829   17847   17868       1
   18009   17997   18006   18015       1   18009   18018  -18024   18015       1
   18006   17997   18009   18018       1   18006   18015  -18024   18018       1
   18000   18006   17997   18009       1   18000   18006   18015   18024       1
   17997   18006   18015   18024       1   17997   18009  -18018   18024       1
   17991   17973   17988   17997       1   17991   18000  -18006   17997       1
   17991   18000   18006   18015       1   17988   17973   17991   18000       1
   17988   17997  -18006   18000       1   17988   17997   18006   18015       1
   17988   17997   18009   18018       1   17976   17988   17973   17991       1
   17976   17988   17997   18006       1   17976   17988   17997   18009       1
   17973   17988   17997   18006       1   17973   17988   17997   18009       1
   17973   17991  -18000   18006       1   17967   17952   17973   17988       1
   17967   17952   17973   17991       1   17955   17937   17952   17967       1
   17955   17937   17952   17973       1   17955   17976  -17988   17973       1
   17955   17976   17988   17997       1   17952   17937   17955   17976       1
   17952   17973  -17988   17976       1   17952   17973   17988   17997       1
   17952   17973   17991   18000       1   17949   17934   17946   17958       1
   17949   17967   17952   17973       1   17946   17934   17949   17967       1
   17937   17928   17931   17940       1   17937   17928   17934   17946       1
   17937   17928   17934   17949       1   17937   17952  -17967   17949       1
   17937   17952   17973   17988       1   17937   17952   17973   17991       1
   17937   17955  -17976   17988       1   17934   17928   17931   17940       1
   17934   17928   17937   17952       1   17934   17928   17937   17955       1
   17934   17946  -17958   17940       1   17934   17949  -17967   17952       1
   17931   17928   17934   17946       1   17931   17928   17934   17949       1
   17931   17928   17937   17952       1   17931   17928   17937   17955       1
   17931   17940  -17958   17946       1   17928   17931   17940   17958       1
   17928   17934  -17946   17958       1   17928   17934   17949   17967       1
   17928   17937  -17952   17967       1   17928   17937   17952   17973       1
   17928   17937   17955   17976       1   18117   18105   18114   18123       1
   18117   18126  -18132   18123       1   18114   18105   18117   18126       1
   18114   18123  -18132   18126       1   18108   18114   18105   18117       1
   18108   18114   18123   18132       1   18105   18114   18123   18132       1
   18105   18117  -18126   18132       1   18099   18081   18096   18105       1
   18099   18108  -18114   18105       1   18099   18108   18114   18123       1
   18096   18081   18099   18108       1   18096   18105  -18114   18108       1
   18096   18105   18114   18123       1   18096   18105   18117   18126       1
   18084   18096   18081   18099       1   18084   18096   18105   18114       1
   18084   18096   18105   18117       1   18081   18096   18105   18114       1
   18081   18096   18105   18117       1   18081   18099  -18108   18114       1
   18075   18060   18081   18096       1   18075   18060   18081   18099       1
   18063   18045   18060   18075       1   18063   18045   18060   18081       1
   18063   18084  -18096   18081       1   18063   18084   18096   18105       1
   18060   18045   18063   18084       1   18060   18081  -18096   18084       1
   18060   18081   18096   18105       1   18060   18081   18099   18108       1
   18057   18042   18054   18066       1   18057   18075   18060   18081       1
   18054   18042   18057   18075       1   18045   18036   18039   18048       1
   18045   18036   18042   18054       1   18045   18036   18042   18057       1
   18045   18060  -18075   18057       1   18045   18060   18081   18096       1
   18045   18060   18081   18099       1   18045   18063  -18084   18096       1
   18042   18036   18039   18048       1   18042   18036   18045   18060       1
   18042   18036   18045   18063       1   18042   18054  -18066   18048       1
   18042   18057  -18075   18060       1   18039   18036   18042   18054       1
   18039   18036   18042   18057       1   18039   18036   18045   18060       1
   18039   18036   18045   18063       1   18039   18048  -18066   18054       1
   18036   18039   18048   18066       1   18036   18042  -18054   18066       1
   18036   18042   18057   18075       1   18036   18045  -18060   18075       1
   18036   18045   18060   18081       1   18036   18045   18063   18084       1
   18225   18213   18222   18231       1   18225   18234  -18240   18231       1
   18222   18213   18225   18234       1   18222   18231  -18240   18234       1
   18216   18222   18213   18225       1   18216   18222   18231   18240       1
   18213   18222   18231   18240       1   18213   18225  -18234   18240       1
   18207   18189   18204   18213       1   18207   18216  -18222   18213       1
   18207   18216   18222   18231       1   18204   18189   18207   18216       1
   18204   18213  -18222   18216       1   18204   18213   18222   18231       1
   18204   18213   18225   18234       1   18192   18204   18189   18207       1
   18192   18204   18213   18222       1   18192   18204   18213   18225       1
   18189   18204   18213   18222       1   18189   18204   18213   18225       1
   18189   18207  -18216   18222       1   18183   18168   18189   18204       1
   18183   18168   18189   18207       1   18171   18153   18168   18183       1
   18171   18153   18168   18189       1   18171   18192  -18204   18189       1
   18171   18192   18204   18213       1   18168   18153   18171   18192       1
   18168   18189  -18204   18192       1   18168   18189   18204   18213       1
   18168   18189   18207   18216       1   18165   18150   18162   18174       1
   18165   18183   18168   18189       1   18162   18150   18165   18183       1
   18153   18144   18147   18156       1   18153   18144   18150   18162       1
   18153   18144   18150   18165       1   18153   18168  -18183   18165       1
   18153   18168   18189   18204       1   18153   18168   18189   18207       1
   18153   18171  -18192   18204       1   18150   18144   18147   18156       1
   18150   18144   18153   18168       1   18150   18144   18153   18171       1
   18150   18162  -18174   18156       1   18150   18165  -18183   18168       1
   18147   18144   18150   18162       1   18147   18144   18150   18165       1
   18147   18144   18153   18168       1   18147   18144   18153   18171       1
   18147   18156  -18174   18162       1   18144   18147   18156   18174       1
   18144   18150  -18162   18174       1   18144   18150   18165   18183       1
   18144   18153  -18168   18183       1   18144   18153   18168   18189       1
   18144   18153   18171   18192       1   18333   18321   18330   18339       1
   18333   18342  -18348   18339       1   18330   18321   18333   18342       1
   18330   18339  -18348   18342       1   18324   18330   18321   18333       1
   18324   18330   18339   18348       1   18321   18330   18339   18348       1
   18321   18333  -18342   18348       1   18315   18297   18312   18321       1
   18315   18324  -18330   18321       1   18315   18324   18330   18339       1
   18312   18297   18315   18324       1   18312   18321  -18330   18324       1
   18312   18321   18330   18339       1   18312   18321   18333   18342       1
   18300   18312   18297   18315       1   18300   18312   18321   18330       1
   18300   18312   18321   18333       1   18297   18312   18321   18330       1
   18297   18312   18321   18333       1   18297   18315  -18324   18330       1
   18291   18276   18297   18312       1   18291   18276   18297   18315       1
   18279   18261   18276   18291       1   18279   18261   18276   18297       1
   18279   18300  -18312   18297       1   18279   18300   18312   18321       1
   18276   18261   18279   18300       1   18276   18297  -18312   18300       1
   18276   18297   18312   18321       1   18276   18297   18315   18324       1
   18273   18258   18270   18282       1   18273   18291   18276   18297       1
   18270   18258   18273   18291       1   18261   18252   18255   18264       1
   18261   18252   18258   18270       1   18261   18252   18258   18273       1
   18261   18276  -18291   18273       1   18261   18276   18297   18312       1
   18261   18276   18297   18315       1   18261   18279  -18300   18312       1
   18258   18252   18255   18264       1   18258   18252   18261   18276       1
   18258   18252   18261   18279       1   18258   18270  -18282   18264       1
   18258   18273  -18291   18276       1   18255   18252   18258   18270       1
   18255   18252   18258   18273       1   18255   18252   18261   18276       1
   18255   18252   18261   18279       1   18255   18264  -18282   18270       1
   18252   18255   18264   18282       1   18252   18258  -18270   18282       1
   18252   18258   18273   18291       1   18252   18261  -18276   18291       1
   18252   18261   18276   18297       1   18252   18261   18279   18300       1
   18441   18429   18438   18447       1   18441   18450  -18456   18447       1
   18438   18429   18441   18450       1   18438   18447  -18456   18450       1
   18432   18438   18429   18441       1   18432   18438   18447   18456       1
   18429   18438   18447   18456       1   18429   18441  -18450   18456       1
   18423   18405   18420   18429       1   18423   18432  -18438   18429       1
   18423   18432   18438   18447       1   18420   18405   18423   18432       1
   18420   18429  -18438   18432       1   18420   18429   18438   18447       1
   18420   18429   18441   18450       1   18408   18420   18405   18423       1
   18408   18420   18429   18438       1   18408   18420   18429   18441       1
   18405   18420   18429   18438       1   18405   18420   18429   18441       1
   18405   18423  -18432   18438       1   18399   18384   18405   18420       1
   18399   18384   18405   18423       1   18387   18369   18384   18399       1
   18387   18369   18384   18405       1   18387   18408  -18420   18405       1
   18387   18408   18420   18429       1   18384   18369   18387   18408       1
   18384   18405  -18420   18408       1   18384   18405   18420   18429       1
   18384   18405   18423   18432       1   18381   18366   18378   18390       1
   18381   18399   18384   18405       1   18378   18366   18381   18399       1
   18369   18360   18363   18372       1   18369   18360   18366   18378       1
   18369   18360   18366   18381       1   18369   18384  -18399   18381       1
   18369   18384   18405   18420       1   18369   18384   18405   18423       1
   18369   18387  -18408   18420       1   18366   18360   18363   18372       1
   18366   18360   18369   18384       1   18366   18360   18369   18387       1
   18366   18378  -18390   18372       1   18366   18381  -18399   18384       1
   18363   18360   18366   18378       1   18363   18360   18366   18381       1
   18363   18360   18369   18384       1   18363   18360   18369   18387       1
   18363   18372  -18390   18378       1   18360   18363   18372   18390       1
   18360   18366  -18378   18390       1   18360   18366   18381   18399       1
   18360   18369  -18384   18399       1   18360   18369   18384   18405       1
   18360   18369   18387   18408       1   18549   18537   18546   18555       1
   18549   18558  -18564   18555       1   18546   18537   18549   18558       1
   18546   18555  -18564   18558       1   18540   18546   18537   18549       1
   18540   18546   18555   18564       1   18537   18546   18555   18564       1
   18537   18549  -18558   18564       1   18531   18513   18528   18537       1
   18531   18540  -18546   18537       1   18531   18540   18546   18555       1
   18528   18513   18531   18540       1   18528   18537  -18546   18540       1
   18528   18537   18546   18555       1   18528   18537   18549   18558       1
   18516   18528   18513   18531       1   18516   18528   18537   18546       1
   18516   18528   18537   18549       1   18513   18528   18537   18546       1
   18513   18528   18537   18549       1   18513   18531  -18540   18546       1
   18507   18492   18513   18528       1   18507   18492   18513   18531       1
   18495   18477   18492   18507       1   18495   18477   18492   18513       1
   18495   18516  -18528   18513       1   18495   18516   18528   18537       1
   18492   18477   18495   18516       1   18492   18513  -18528   18516       1
   18492   18513   18528   18537       1   18492   18513   18531   18540       1
   18489   18474   18486   18498       1   18489   18507   18492   18513       1
   18486   18474   18489   18507       1   18477   18468   18471   18480       1
   18477   18468   18474   18486       1   18477   18468   18474   18489       1
   18477   18492  -18507   18489       1   18477   18492   18513   18528       1
   18477   18492   18513   18531       1   18477   18495  -18516   18528       1
   18474   18468   18471   18480       1   18474   18468   18477   18492       1
   18474   18468   18477   18495       1   18474   18486  -18498   18480       1
   18474   18489  -18507   18492       1   18471   18468   18474   18486       1
   18471   18468   18474   18489       1   18471   18468   18477   18492       1
   18471   18468   18477   18495       1   18471   18480  -18498   18486       1
   18468   18471   18480   18498       1   18468   18474  -18486   18498       1
   18468   18474   18489   18507       1   18468   18477  -18492   18507       1
   18468   18477   18492   18513       1   18468   18477   18495   18516       1
   18657   18645   18654   18663       1   18657   18666  -18672   18663       1
   18654   18645   18657   18666       1   18654   18663  -18672   18666       1
   18648   18654   18645   18657       1   18648   18654   18663   18672       1
   18645   18654   18663   18672       1   18645   18657  -18666   18672       1
   18639   18621   18636   18645       1   18639   18648  -18654   18645       1
   18639   18648   18654   18663       1   18636   18621   18639   18648       1
   18636   18645  -18654   18648       1   18636   18645   18654   18663       1
   18636   18645   18657   18666       1   18624   18636   18621   18639       1
   18624   18636   18645   18654       1   18624   18636   18645   18657       1
   18621   18636   18645   18654       1   18621   18636   18645   18657       1
   18621   18639  -18648   18654       1   18615   18600   18621   18636       1
   18615   18600   18621   18639       1   18603   18585   18600   18615       1
   18603   18585   18600   18621       1   18603   18624  -18636   18621       1
   18603   18624   18636   18645       1   18600   18585   18603   18624       1
   18600   18621  -18636   18624       1   18600   18621   18636   18645       1
   18600   18621   18639   18648       1   18597   18582   18594   18606       1
   18597   18615   18600   18621       1   18594   18582   18597   18615       1
   18585   18576   18579   18588       1   18585   18576   18582   18594       1
   18585   18576   18582   18597       1   18585   18600  -18615   18597       1
   18585   18600   18621   18636       1   18585   18600   18621   18639       1
   18585   18603  -18624   18636       1   18582   18576   18579   18588       1
   18582   18576   18585   18600       1   18582   18576   18585   18603       1
   18582   18594  -18606   18588       1   18582   18597  -18615   18600       1
   18579   18576   18582   18594       1   18579   18576   18582   18597       1
   18579   18576   18585   18600       1   18579   18576   18585   18603       1
   18579   18588  -18606   18594       1   18576   18579   18588   18606       1
   18576   18582  -18594   18606       1   18576   18582   18597   18615       1
   18576   18585  -18600   18615       1   18576   18585   18600   18621       1
   18576   18585   18603   18624       1   18765   18753   18762   18771       1
   18765   18774  -18780   18771       1   18762   18753   18765   18774       1
   18762   18771  -18780   18774       1   18756   18762   18753   18765       1
   18756   18762   18771   18780       1   18753   18762   18771   18780       1
   18753   18765  -18774   18780       1   18747   18729   18744   18753       1
   18747   18756  -18762   18753       1   18747   18756   18762   18771       1
   18744   18729   18747   18756       1   18744   18753  -18762   18756       1
   18744   18753   18762   18771       1   18744   18753   18765   18774       1
   18732   18744   18729   18747       1   18732   18744   18753   18762       1
   18732   18744   18753   18765       1   18729   18744   18753   18762       1
   18729   18744   18753   18765       1   18729   18747  -18756   18762       1
   18723   18708   18729   18744       1   18723   18708   18729   18747       1
   18711   18693   18708   18723       1   18711   18693   18708   18729       1
   18711   18732  -18744   18729       1   18711   18732   18744   18753       1
   18708   18693   18711   18732       1   18708   18729  -18744   18732       1
   18708   18729   18744   18753       1   18708   18729   18747   18756       1
   18705   18690   18702   18714       1   18705   18723   18708   18729       1
   18702   18690   18705   18723       1   18693   18684   18687   18696       1
   18693   18684   18690   18702       1   18693   18684   18690   18705       1
   18693   18708  -18723   18705       1   18693   18708   18729   18744       1
   18693   18708   18729   18747       1   18693   18711  -18732   18744       1
   18690   18684   18687   18696       1   18690   18684   18693   18708       1
   18690   18684   18693   18711       1   18690   18702  -18714   18696       1
   18690   18705  -18723   18708       1   18687   18684   18690   18702       1
   18687   18684   18690   18705       1   18687   18684   18693   18708       1
   18687   18684   18693   18711       1   18687   18696  -18714   18702       1
   18684   18687   18696   18714       1   18684   18690  -18702   18714       1
   18684   18690   18705   18723       1   18684   18693  -18708   18723       1
   18684   18693   18708   18729       1   18684   18693   18711   18732       1
   18873   18861   18870   18879       1   18873   18882  -18888   18879       1
   18870   18861   18873   18882       1   18870   18879  -18888   18882       1
   18864   18870   18861   18873       1   18864   18870   18879   18888       1
   18861   18870   18879   18888       1   18861   18873  -18882   18888       1
   18855   18837   18852   18861       1   18855   18864  -18870   18861       1
   18855   18864   18870   18879       1   18852   18837   18855   18864       1
   18852   18861  -18870   18864       1   18852   18861   18870   18879       1
   18852   18861   18873   18882       1   18840   18852   18837   18855       1
   18840   18852   18861   18870       1   18840   18852   18861   18873       1
   18837   18852   18861   18870       1   18837   18852   18861   18873       1
   18837   18855  -18864   18870       1   18831   18816   18837   18852       1
   18831   18816   18837   18855       1   18819   18801   18816   18831       1
   18819   18801   18816   18837       1   18819   18840  -18852   18837       1
   18819   18840   18852   18861       1   18816   18801   18819   18840       1
   18816   18837  -18852   18840       1   18816   18837   18852   18861       1
   18816   18837   18855   18864       1   18813   18798   18810   18822       1
   18813   18831   18816   18837       1   18810   18798   18813   18831       1
   18801   18792   18795   18804       1   18801   18792   18798   18810       1
   18801   18792   18798   18813       1   18801   18816  -18831   18813       1
   18801   18816   18837   18852       1   18801   18816   18837   18855       1
   18801   18819  -18840   18852       1   18798   18792   18795   18804       1
   18798   18792   18801   18816       1   18798   18792   18801   18819       1
   18798   18810  -18822   18804       1   18798   18813  -18831   18816       1
   18795   18792   18798   18810       1   18795   18792   18798   18813       1
   18795   18792   18801   18816       1   18795   18792   18801   18819       1
   18795   18804  -18822   18810       1   18792   18795   18804   18822       1
   18792   18798  -18810   18822       1   18792   18798   18813   18831       1
   18792   18801  -18816   18831       1   18792   18801   18816   18837       1
   18792   18801   18819   18840       1   18981   18969   18978   18987       1
   18981   18990  -18996   18987       1   18978   18969   18981   18990       1
   18978   18987  -18996   18990       1   18972   18978   18969   18981       1
   18972   18978   18987   18996       1   18969   18978   18987   18996       1
   18969   18981  -18990   18996       1   18963   18945   18960   18969       1
   18963   18972  -18978   18969       1   18963   18972   18978   18987       1
   18960   18945   18963   18972       1   18960   18969  -18978   18972       1
   18960   18969   18978   18987       1   18960   18969   18981   18990       1
   18948   18960   18945   18963       1   18948   18960   18969   18978       1
   18948   18960   18969   18981       1   18945   18960   18969   18978       1
   18945   18960   18969   18981       1   18945   18963  -18972   18978       1
   18939   18924   18945   18960       1   18939   18924   18945   18963       1
   18927   18909   18924   18939       1   18927   18909   18924   18945       1
   18927   18948  -18960   18945       1   18927   18948   18960   18969       1
   18924   18909   18927   18948       1   18924   18945  -18960   18948       1
   18924   18945   18960   18969       1   18924   18945   18963   18972       1
   18921   18906   18918   18930       1   18921   18939   18924   18945       1
   18918   18906   18921   18939       1   18909   18900   18903   18912       1
   18909   18900   18906   18918       1   18909   18900   18906   18921       1
   18909   18924  -18939   18921       1   18909   18924   18945   18960       1
   18909   18924   18945   18963       1   18909   18927  -18948   18960       1
   18906   18900   18903   18912       1   18906   18900   18909   18924       1
   18906   18900   18909   18927       1   18906   18918  -18930   18912       1
   18906   18921  -18939   18924       1   18903   18900   18906   18918       1
   18903   18900   18906   18921       1   18903   18900   18909   18924       1
   18903   18900   18909   18927       1   18903   18912  -18930   18918       1
   18900   18903   18912   18930       1   18900   18906  -18918   18930       1
   18900   18906   18921   18939       1   18900   18909  -18924   18939       1
   18900   18909   18924   18945       1   18900   18909   18927   18948       1
   19089   19077   19086   19095       1   19089   19098  -19104   19095       1
   19086   19077   19089   19098       1   19086   19095  -19104   19098       1
   19080   19086   19077   19089       1   19080   19086   19095   19104       1
   19077   19086   19095   19104       1   19077   19089  -19098   19104       1
   19071   19053   19068   19077       1   19071   19080  -19086   19077       1
   19071   19080   19086   19095       1   19068   19053   19071   19080       1
   19068   19077  -19086   19080       1   19068   19077   19086   19095       1
   19068   19077   19089   19098       1   19056   19068   19053   19071       1
   19056   19068   19077   19086       1   19056   19068   19077   19089       1
   19053   19068   19077   19086       1   19053   19068   19077   19089       1
   19053   19071  -19080   19086       1   19047   19032   19053   19068       1
   19047   19032   19053   19071       1   19035   19017   19032   19047       1
   19035   19017   19032   19053       1   19035   19056  -19068   19053       1
   19035   19056   19068   19077       1   19032   19017   19035   19056       1
   19032   19053  -19068   19056       1   19032   19053   19068   19077       1
   19032   19053   19071   19080       1   19029   19014   19026   19038       1
   19029   19047   19032   19053       1   19026   19014   19029   19047       1
   19017   19008   19011   19020       1   19017   19008   19014   19026       1
   19017   19008   19014   19029       1   19017   19032  -19047   19029       1
   19017   19032   19053   19068       1   19017   19032   19053   19071       1
   19017   19035  -19056   19068       1   19014   19008   19011   19020       1
   19014   19008   19017   19032       1   19014   19008   19017   19035       1
   19014   19026  -19038   19020       1   19014   19029  -19047   19032       1
   19011   19008   19014   19026       1   19011   19008   19014   19029       1
   19011   19008   19017   19032       1   19011   19008   19017   19035       1
   19011   19020  -19038   19026       1   19008   19011   19020   19038       1
   19008   19014  -19026   19038       1   19008   19014   19029   19047       1
   19008   19017  -19032   19047       1   19008   19017   19032   19053       1
   19008   19017   19035   19056       1   19197   19185   19194   19203       1
   19197   19206  -19212   19203       1   19194   19185   19197   19206       1
   19194   19203  -19212   19206       1   19188   19194   19185   19197       1
   19188   19194   19203   19212       1   19185   19194   19203   19212       1
   19185   19197  -19206   19212       1   19179   19161   19176   19185       1
   19179   19188  -19194   19185       1   19179   19188   19194   19203       1
   19176   19161   19179   19188       1   19176   19185  -19194   19188       1
   19176   19185   19194   19203       1   19176   19185   19197   19206       1
   19164   19176   19161   19179       1   19164   19176   19185   19194       1
   19164   19176   19185   19197       1   19161   19176   19185   19194       1
   19161   19176   19185   19197       1   19161   19179  -19188   19194       1
   19155   19140   19161   19176       1   19155   19140   19161   19179       1
   19143   19125   19140   19155       1   19143   19125   19140   19161       1
   19143   19164  -19176   19161       1   19143   19164   19176   19185       1
   19140   19125   19143   19164       1   19140   19161  -19176   19164       1
   19140   19161   19176   19185       1   19140   19161   19179   19188       1
   19137   19122   19134   19146       1   19137   19155   19140   19161       1
   19134   19122   19137   19155       1   19125   19116   19119   19128       1
   19125   19116   19122   19134       1   19125   19116   19122   19137       1
   19125   19140  -19155   19137       1   19125   19140   19161   19176       1
   19125   19140   19161   19179       1   19125   19143  -19164   19176       1
   19122   19116   19119   19128       1   19122   19116   19125   19140       1
   19122   19116   19125   19143       1   19122   19134  -19146   19128       1
   19122   19137  -19155   19140       1   19119   19116   19122   19134       1
   19119   19116   19122   19137       1   19119   19116   19125   19140       1
   19119   19116   19125   19143       1   19119   19128  -19146   19134       1
   19116   19119   19128   19146       1   19116   19122  -19134   19146       1
   19116   19122   19137   19155       1   19116   19125  -19140   19155       1
   19116   19125   19140   19161       1   19116   19125   19143   19164       1
   19305   19293   19302   19311       1   19305   19314  -19320   19311       1
   19302   19293   19305   19314       1   19302   19311  -19320   19314       1
   19296   19302   19293   19305       1   19296   19302   19311   19320       1
   19293   19302   19311   19320       1   19293   19305  -19314   19320       1
   19287   19269   19284   19293       1   19287   19296  -19302   19293       1
   19287   19296   19302   19311       1   19284   19269   19287   19296       1
   19284   19293  -19302   19296       1   19284   19293   19302   19311       1
   19284   19293   19305   19314       1   19272   19284   19269   19287       1
   19272   19284   19293   19302       1   19272   19284   19293   19305       1
   19269   19284   19293   19302       1   19269   19284   19293   19305       1
   19269   19287  -19296   19302       1   19263   19248   19269   19284       1
   19263   19248   19269   19287       1   19251   19233   19248   19263       1
   19251   19233   19248   19269       1   19251   19272  -19284   19269       1
   19251   19272   19284   19293       1   19248   19233   19251   19272       1
   19248   19269  -19284   19272       1   19248   19269   19284   19293       1
   19248   19269   19287   19296       1   19245   19230   19242   19254       1
   19245   19263   19248   19269       1   19242   19230   19245   19263       1
   19233   19224   19227   19236       1   19233   19224   19230   19242       1
   19233   19224   19230   19245       1   19233   19248  -19263   19245       1
   19233   19248   19269   19284       1   19233   19248   19269   19287       1
   19233   19251  -19272   19284       1   19230   19224   19227   19236       1
   19230   19224   19233   19248       1   19230   19224   19233   19251       1
   19230   19242  -19254   19236       1   19230   19245  -19263   19248       1
   19227   19224   19230   19242       1   19227   19224   19230   19245       1
   19227   19224   19233   19248       1   19227   19224   19233   19251       1
   19227   19236  -19254   19242       1   19224   19227   19236   19254       1
   19224   19230  -19242   19254       1   19224   19230   19245   19263       1
   19224   19233  -19248   19263       1   19224   19233   19248   19269       1
   19224   19233   19251   19272       1   19413   19401   19410   19419       1
   19413   19422  -19428   19419       1   19410   19401   19413   19422       1
   19410   19419  -19428   19422       1   19404   19410   19401   19413       1
   19404   19410   19419   19428       1   19401   19410   19419   19428       1
   19401   19413  -19422   19428       1   19395   19377   19392   19401       1
   19395   19404  -19410   19401       1   19395   19404   19410   19419       1
   19392   19377   19395   19404       1   19392   19401  -19410   19404       1
   19392   19401   19410   19419       1   19392   19401   19413   19422       1
   19380   19392   19377   19395       1   19380   19392   19401   19410       1
   19380   19392   19401   19413       1   19377   19392   19401   19410       1
   19377   19392   19401   19413       1   19377   19395  -19404   19410       1
   19371   19356   19377   19392       1   19371   19356   19377   19395       1
   19359   19341   19356   19371       1   19359   19341   19356   19377       1
   19359   19380  -19392   19377       1   19359   19380   19392   19401       1
   19356   19341   19359   19380       1   19356   19377  -19392   19380       1
   19356   19377   19392   19401       1   19356   19377   19395   19404       1
   19353   19338   19350   19362       1   19353   19371   19356   19377       1
   19350   19338   19353   19371       1   19341   19332   19335   19344       1
   19341   19332   19338   19350       1   19341   19332   19338   19353       1
   19341   19356  -19371   19353       1   19341   19356   19377   19392       1
   19341   19356   19377   19395       1   19341   19359  -19380   19392       1
   19338   19332   19335   19344       1   19338   19332   19341   19356       1
   19338   19332   19341   19359       1   19338   19350  -19362   19344       1
   19338   19353  -19371   19356       1   19335   19332   19338   19350       1
   19335   19332   19338   19353       1   19335   19332   19341   19356       1
   19335   19332   19341   19359       1   19335   19344  -19362   19350       1
   19332   19335   19344   19362       1   19332   19338  -19350   19362       1
   19332   19338   19353   19371       1   19332   19341  -19356   19371       1
   19332   19341   19356   19377       1   19332   19341   19359   19380       1
   19521   19509   19518   19527       1   19521   19530  -19536   19527       1
   19518   19509   19521   19530       1   19518   19527  -19536   19530       1
   19512   19518   19509   19521       1   19512   19518   19527   19536       1
   19509   19518   19527   19536       1   19509   19521  -19530   19536       1
   19503   19485   19500   19509       1   19503   19512  -19518   19509       1
   19503   19512   19518   19527       1   19500   19485   19503   19512       1
   19500   19509  -19518   19512       1   19500   19509   19518   19527       1
   19500   19509   19521   19530       1   19488   19500   19485   19503       1
   19488   19500   19509   19518       1   19488   19500   19509   19521       1
   19485   19500   19509   19518       1   19485   19500   19509   19521       1
   19485   19503  -19512   19518       1   19479   19464   19485   19500       1
   19479   19464   19485   19503       1   19467   19449   19464   19479       1
   19467   19449   19464   19485       1   19467   19488  -19500   19485       1
   19467   19488   19500   19509       1   19464   19449   19467   19488       1
   19464   19485  -19500   19488       1   19464   19485   19500   19509       1
   19464   19485   19503   19512       1   19461   19446   19458   19470       1
   19461   19479   19464   19485       1   19458   19446   19461   19479       1
   19449   19440   19443   19452       1   19449   19440   19446   19458       1
   19449   19440   19446   19461       1   19449   19464  -19479   19461       1
   19449   19464   19485   19500       1   19449   19464   19485   19503       1
   19449   19467  -19488   19500       1   19446   19440   19443   19452       1
   19446   19440   19449   19464       1   19446   19440   19449   19467       1
   19446   19458  -19470   19452       1   19446   19461  -19479   19464       1
   19443   19440   19446   19458       1   19443   19440   19446   19461       1
   19443   19440   19449   19464       1   19443   19440   19449   19467       1
   19443   19452  -19470   19458       1   19440   19443   19452   19470       1
   19440   19446  -19458   19470       1   19440   19446   19461   19479       1
   19440   19449  -19464   19479       1   19440   19449   19464   19485       1
   19440   19449   19467   19488       1   19629   19617   19626   19635       1
   19629   19638  -19644   19635       1   19626   19617   19629   19638       1
   19626   19635  -19644   19638       1   19620   19626   19617   19629       1
   19620   19626   19635   19644       1   19617   19626   19635   19644       1
   19617   19629  -19638   19644       1   19611   19593   19608   19617       1
   19611   19620  -19626   19617       1   19611   19620   19626   19635       1
   19608   19593   19611   19620       1   19608   19617  -19626   19620       1
   19608   19617   19626   19635       1   19608   19617   19629   19638       1
   19596   19608   19593   19611       1   19596   19608   19617   19626       1
   19596   19608   19617   19629       1   19593   19608   19617   19626       1
   19593   19608   19617   19629       1   19593   19611  -19620   19626       1
   19587   19572   19593   19608       1   19587   19572   19593   19611       1
   19575   19557   19572   19587       1   19575   19557   19572   19593       1
   19575   19596  -19608   19593       1   19575   19596   19608   19617       1
   19572   19557   19575   19596       1   19572   19593  -19608   19596       1
   19572   19593   19608   19617       1   19572   19593   19611   19620       1
   19569   19554   19566   19578       1   19569   19587   19572   19593       1
   19566   19554   19569   19587       1   19557   19548   19551   19560       1
   19557   19548   19554   19566       1   19557   19548   19554   19569       1
   19557   19572  -19587   19569       1   19557   19572   19593   19608       1
   19557   19572   19593   19611       1   19557   19575  -19596   19608       1
   19554   19548   19551   19560       1   19554   19548   19557   19572       1
   19554   19548   19557   19575       1   19554   19566  -19578   19560       1
   19554   19569  -19587   19572       1   19551   19548   19554   19566       1
   19551   19548   19554   19569       1   19551   19548   19557   19572       1
   19551   19548   19557   19575       1   19551   19560  -19578   19566       1
   19548   19551   19560   19578       1   19548   19554  -19566   19578       1
   19548   19554   19569   19587       1   19548   19557  -19572   19587       1
   19548   19557   19572   19593       1   19548   19557   19575   19596       1
   19737   19725   19734   19743       1   19737   19746  -19752   19743       1
   19734   19725   19737   19746       1   19734   19743  -19752   19746       1
   19728   19734   19725   19737       1   19728   19734   19743   19752       1
   19725   19734   19743   19752       1   19725   19737  -19746   19752       1
   19719   19701   19716   19725       1   19719   19728  -19734   19725       1
   19719   19728   19734   19743       1   19716   19701   19719   19728       1
   19716   19725  -19734   19728       1   19716   19725   19734   19743       1
   19716   19725   19737   19746       1   19704   19716   19701   19719       1
   19704   19716   19725   19734       1   19704   19716   19725   19737       1
   19701   19716   19725   19734       1   19701   19716   19725   19737       1
   19701   19719  -19728   19734       1   19695   19680   19701   19716       1
   19695   19680   19701   19719       1   19683   19665   19680   19695       1
   19683   19665   19680   19701       1   19683   19704  -19716   19701       1
   19683   19704   19716   19725       1   19680   19665   19683   19704       1
   19680   19701  -19716   19704       1   19680   19701   19716   19725       1
   19680   19701   19719   19728       1   19677   19662   19674   19686       1
   19677   19695   19680   19701       1   19674   19662   19677   19695       1
   19665   19656   19659   19668       1   19665   19656   19662   19674       1
   19665   19656   19662   19677       1   19665   19680  -19695   19677       1
   19665   19680   19701   19716       1   19665   19680   19701   19719       1
   19665   19683  -19704   19716       1   19662   19656   19659   19668       1
   19662   19656   19665   19680       1   19662   19656   19665   19683       1
   19662   19674  -19686   19668       1   19662   19677  -19695   19680       1
   19659   19656   19662   19674       1   19659   19656   19662   19677       1
   19659   19656   19665   19680       1   19659   19656   19665   19683       1
   19659   19668  -19686   19674       1   19656   19659   19668   19686       1
   19656   19662  -19674   19686       1   19656   19662   19677   19695       1
   19656   19665  -19680   19695       1   19656   19665   19680   19701       1
   19656   19665   19683   19704       1   19845   19833   19842   19851       1
   19845   19854  -19860   19851       1   19842   19833   19845   19854       1
   19842   19851  -19860   19854       1   19836   19842   19833   19845       1
   19836   19842   19851   19860       1   19833   19842   19851   19860       1
   19833   19845  -19854   19860       1   19827   19809   19824   19833       1
   19827   19836  -19842   19833       1   19827   19836   19842   19851       1
   19824   19809   19827   19836       1   19824   19833  -19842   19836       1
   19824   19833   19842   19851       1   19824   19833   19845   19854       1
   19812   19824   19809   19827       1   19812   19824   19833   19842       1
   19812   19824   19833   19845       1   19809   19824   19833   19842       1
   19809   19824   19833   19845       1   19809   19827  -19836   19842       1
   19803   19788   19809   19824       1   19803   19788   19809   19827       1
   19791   19773   19788   19803       1   19791   19773   19788   19809       1
   19791   19812  -19824   19809       1   19791   19812   19824   19833       1
   19788   19773   19791   19812       1   19788   19809  -19824   19812       1
   19788   19809   19824   19833       1   19788   19809   19827   19836       1
   19785   19770   19782   19794       1   19785   19803   19788   19809       1
   19782   19770   19785   19803       1   19773   19764   19767   19776       1
   19773   19764   19770   19782       1   19773   19764   19770   19785       1
   19773   19788  -19803   19785       1   19773   19788   19809   19824       1
   19773   19788   19809   19827       1   19773   19791  -19812   19824       1
   19770   19764   19767   19776       1   19770   19764   19773   19788       1
   19770   19764   19773   19791       1   19770   19782  -19794   19776       1
   19770   19785  -19803   19788       1   19767   19764   19770   19782       1
   19767   19764   19770   19785       1   19767   19764   19773   19788       1
   19767   19764   19773   19791       1   19767   19776  -19794   19782       1
   19764   19767   19776   19794       1   19764   19770  -19782   19794       1
   19764   19770   19785   19803       1   19764   19773  -19788   19803       1
   19764   19773   19788   19809       1   19764   19773   19791   19812       1
   19953   19941   19950   19959       1   19953   19962  -19968   19959       1
   19950   19941   19953   19962       1   19950   19959  -19968   19962       1
   19944   19950   19941   19953       1   19944   19950   19959   19968       1
   19941   19950   19959   19968       1   19941   19953  -19962   19968       1
   19935   19917   19932   19941       1   19935   19944  -19950   19941       1
   19935   19944   19950   19959       1   19932   19917   19935   19944       1
   19932   19941  -19950   19944       1   19932   19941   19950   19959       1
   19932   19941   19953   19962       1   19920   19932   19917   19935       1
   19920   19932   19941   19950       1   19920   19932   19941   19953       1
   19917   19932   19941   19950       1   19917   19932   19941   19953       1
   19917   19935  -19944   19950       1   19911   19896   19917   19932       1
   19911   19896   19917   19935       1   19899   19881   19896   19911       1
   19899   19881   19896   19917       1   19899   19920  -19932   19917       1
   19899   19920   19932   19941       1   19896   19881   19899   19920       1
   19896   19917  -19932   19920       1   19896   19917   19932   19941       1
   19896   19917   19935   19944       1   19893   19878   19890   19902       1
   19893   19911   19896   19917       1   19890   19878   19893   19911       1
   19881   19872   19875   19884       1   19881   19872   19878   19890       1
   19881   19872   19878   19893       1   19881   19896  -19911   19893       1
   19881   19896   19917   19932       1   19881   19896   19917   19935       1
   19881   19899  -19920   19932       1   19878   19872   19875   19884       1
   19878   19872   19881   19896       1   19878   19872   19881   19899       1
   19878   19890  -19902   19884       1   19878   19893  -19911   19896       1
   19875   19872   19878   19890       1   19875   19872   19878   19893       1
   19875   19872   19881   19896       1   19875   19872   19881   19899       1
   19875   19884  -19902   19890       1   19872   19875   19884   19902       1
   19872   19878  -19890   19902       1   19872   19878   19893   19911       1
   19872   19881  -19896   19911       1   19872   19881   19896   19917       1
   19872   19881   19899   19920       1   20061   20049   20058   20067       1
   20061   20070  -20076   20067       1   20058   20049   20061   20070       1
   20058   20067  -20076   20070       1   20052   20058   20049   20061       1
   20052   20058   20067   20076       1   20049   20058   20067   20076       1
   20049   20061  -20070   20076       1   20043   20025   20040   20049       1
   20043   20052  -20058   20049       1   20043   20052   20058   20067       1
   20040   20025   20043   20052       1   20040   20049  -20058   20052       1
   20040   20049   20058   20067       1   20040   20049   20061   20070       1
   20028   20040   20025   20043       1   20028   20040   20049   20058       1
   20028   20040   20049   20061       1   20025   20040   20049   20058       1
   20025   20040   20049   20061       1   20025   20043  -20052   20058       1
   20019   20004   20025   20040       1   20019   20004   20025   20043       1
   20007   19989   20004   20019       1   20007   19989   20004   20025       1
   20007   20028  -20040   20025       1   20007   20028   20040   20049       1
   20004   19989   20007   20028       1   20004   20025  -20040   20028       1
   20004   20025   20040   20049       1   20004   20025   20043   20052       1
   20001   19986   19998   20010       1   20001   20019   20004   20025       1
   19998   19986   20001   20019       1   19989   19980   19983   19992       1
   19989   19980   19986   19998       1   19989   19980   19986   20001       1
   19989   20004  -20019   20001       1   19989   20004   20025   20040       1
   19989   20004   20025   20043       1   19989   20007  -20028   20040       1
   19986   19980   19983   19992       1   19986   19980   19989   20004       1
   19986   19980   19989   20007       1   19986   19998  -20010   19992       1
   19986   20001  -20019   20004       1   19983   19980   19986   19998       1
   19983   19980   19986   20001       1   19983   19980   19989   20004       1
   19983   19980   19989   20007       1   19983   19992  -20010   19998       1
   19980   19983   19992   20010       1   19980   19986  -19998   20010       1
   19980   19986   20001   20019       1   19980   19989  -20004   20019       1
   19980   19989   20004   20025       1   19980   19989   20007   20028       1
   20169   20157   20166   20175       1   20169   20178  -20184   20175       1
   20166   20157   20169   20178       1   20166   20175  -20184   20178       1
   20160   20166   20157   20169       1   20160   20166   20175   20184       1
   20157   20166   20175   20184       1   20157   20169  -20178   20184       1
   20151   20133   20148   20157       1   20151   20160  -20166   20157       1
   20151   20160   20166   20175       1   20148   20133   20151   20160       1
   20148   20157  -20166   20160       1   20148   20157   20166   20175       1
   20148   20157   20169   20178       1   20136   20148   20133   20151       1
   20136   20148   20157   20166       1   20136   20148   20157   20169       1
   20133   20148   20157   20166       1   20133   20148   20157   20169       1
   20133   20151  -20160   20166       1   20127   20112   20133   20148       1
   20127   20112   20133   20151       1   20115   20097   20112   20127       1
   20115   20097   20112   20133       1   20115   20136  -20148   20133       1
   20115   20136   20148   20157       1   20112   20097   20115   20136       1
   20112   20133  -20148   20136       1   20112   20133   20148   20157       1
   20112   20133   20151   20160       1   20109   20094   20106   20118       1
   20109   20127   20112   20133       1   20106   20094   20109   20127       1
   20097   20088   20091   20100       1   20097   20088   20094   20106       1
   20097   20088   20094   20109       1   20097   20112  -20127   20109       1
   20097   20112   20133   20148       1   20097   20112   20133   20151       1
   20097   20115  -20136   20148       1   20094   20088   20091   20100       1
   20094   20088   20097   20112       1   20094   20088   20097   20115       1
   20094   20106  -20118   20100       1   20094   20109  -20127   20112       1
   20091   20088   20094   20106       1   20091   20088   20094   20109       1
   20091   20088   20097   20112       1   20091   20088   20097   20115       1
   20091   20100  -20118   20106       1   20088   20091   20100   20118       1
   20088   20094  -20106   20118       1   20088   20094   20109   20127       1
   20088   20097  -20112   20127       1   20088   20097   20112   20133       1
   20088   20097   20115   20136       1   20277   20265   20274   20283       1
   20277   20286  -20292   20283       1   20274   20265   20277   20286       1
   20274   20283  -20292   20286       1   20268   20274   20265   20277       1
   20268   20274   20283   20292       1   20265   20274   20283   20292       1
   20265   20277  -20286   20292       1   20259   20241   20256   20265       1
   20259   20268  -20274   20265       1   20259   20268   20274   20283       1
   20256   20241   20259   20268       1   20256   20265  -20274   20268       1
   20256   20265   20274   20283       1   20256   20265   20277   20286       1
   20244   20256   20241   20259       1   20244   20256   20265   20274       1
   20244   20256   20265   20277       1   20241   20256   20265   20274       1
   20241   20256   20265   20277       1   20241   20259  -20268   20274       1
   20235   20220   20241   20256       1   20235   20220   20241   20259       1
   20223   20205   20220   20235       1   20223   20205   20220   20241       1
   20223   20244  -20256   20241       1   20223   20244   20256   20265       1
   20220   20205   20223   20244       1   20220   20241  -20256   20244       1
   20220   20241   20256   20265       1   20220   20241   20259   20268       1
   20217   20202   20214   20226       1   20217   20235   20220   20241       1
   20214   20202   20217   20235       1   20205   20196   20199   20208       1
   20205   20196   20202   20214       1   20205   20196   20202   20217       1
   20205   20220  -20235   20217       1   20205   20220   20241   20256       1
   20205   20220   20241   20259       1   20205   20223  -20244   20256       1
   20202   20196   20199   20208       1   20202   20196   20205   20220       1
   20202   20196   20205   20223       1   20202   20214  -20226   20208       1
   20202   20217  -20235   20220       1   20199   20196   20202   20214       1
   20199   20196   20202   20217       1   20199   20196   20205   20220       1
   20199   20196   20205   20223       1   20199   20208  -20226   20214       1
   20196   20199   20208   20226       1   20196   20202  -20214   20226       1
   20196   20202   20217   20235       1   20196   20205  -20220   20235       1
   20196   20205   20220   20241       1   20196   20205   20223   20244       1
   20385   20373   20382   20391       1   20385   20394  -20400   20391       1
   20382   20373   20385   20394       1   20382   20391  -20400   20394       1
   20376   20382   20373   20385       1   20376   20382   20391   20400       1
   20373   20382   20391   20400       1   20373   20385  -20394   20400       1
   20367   20349   20364   20373       1   20367   20376  -20382   20373       1
   20367   20376   20382   20391       1   20364   20349   20367   20376       1
   20364   20373  -20382   20376       1   20364   20373   20382   20391       1
   20364   20373   20385   20394       1   20352   20364   20349   20367       1
   20352   20364   20373   20382       1   20352   20364   20373   20385       1
   20349   20364   20373   20382       1   20349   20364   20373   20385       1
   20349   20367  -20376   20382       1   20343   20328   20349   20364       1
   20343   20328   20349   20367       1   20331   20313   20328   20343       1
   20331   20313   20328   20349       1   20331   20352  -20364   20349       1
   20331   20352   20364   20373       1   20328   20313   20331   20352       1
   20328   20349  -20364   20352       1   20328   20349   20364   20373       1
   20328   20349   20367   20376       1   20325   20310   20322   20334       1
   20325   20343   20328   20349       1   20322   20310   20325   20343       1
   20313   20304   20307   20316       1   20313   20304   20310   20322       1
   20313   20304   20310   20325       1   20313   20328  -20343   20325       1
   20313   20328   20349   20364       1   20313   20328   20349   20367       1
   20313   20331  -20352   20364       1   20310   20304   20307   20316       1
   20310   20304   20313   20328       1   20310   20304   20313   20331       1
   20310   20322  -20334   20316       1   20310   20325  -20343   20328       1
   20307   20304   20310   20322       1   20307   20304   20310   20325       1
   20307   20304   20313   20328       1   20307   20304   20313   20331       1
   20307   20316  -20334   20322       1   20304   20307   20316   20334       1
   20304   20310  -20322   20334       1   20304   20310   20325   20343       1
   20304   20313  -20328   20343       1   20304   20313   20328   20349       1
   20304   20313   20331   20352       1   20493   20481   20490   20499       1
   20493   20502  -20508   20499       1   20490   20481   20493   20502       1
   20490   20499  -20508   20502       1   20484   20490   20481   20493       1
   20484   20490   20499   20508       1   20481   20490   20499   20508       1
   20481   20493  -20502   20508       1   20475   20457   20472   20481       1
   20475   20484  -20490   20481       1   20475   20484   20490   20499       1
   20472   20457   20475   20484       1   20472   20481  -20490   20484       1
   20472   20481   20490   20499       1   20472   20481   20493   20502       1
   20460   20472   20457   20475       1   20460   20472   20481   20490       1
   20460   20472   20481   20493       1   20457   20472   20481   20490       1
   20457   20472   20481   20493       1   20457   20475  -20484   20490       1
   20451   20436   20457   20472       1   20451   20436   20457   20475       1
   20439   20421   20436   20451       1   20439   20421   20436   20457       1
   20439   20460  -20472   20457       1   20439   20460   20472   20481       1
   20436   20421   20439   20460       1   20436   20457  -20472   20460       1
   20436   20457   20472   20481       1   20436   20457   20475   20484       1
   20433   20418   20430   20442       1   20433   20451   20436   20457       1
   20430   20418   20433   20451       1   20421   20412   20415   20424       1
   20421   20412   20418   20430       1   20421   20412   20418   20433       1
   20421   20436  -20451   20433       1   20421   20436   20457   20472       1
   20421   20436   20457   20475       1   20421   20439  -20460   20472       1
   20418   20412   20415   20424       1   20418   20412   20421   20436       1
   20418   20412   20421   20439       1   20418   20430  -20442   20424       1
   20418   20433  -20451   20436       1   20415   20412   20418   20430       1
   20415   20412   20418   20433       1   20415   20412   20421   20436       1
   20415   20412   20421   20439       1   20415   20424  -20442   20430       1
   20412   20415   20424   20442       1   20412   20418  -20430   20442       1
   20412   20418   20433   20451       1   20412   20421  -20436   20451       1
   20412   20421   20436   20457       1   20412   20421   20439   20460       1
   20601   20589   20598   20607       1   20601   20610  -20616   20607       1
   20598   20589   20601   20610       1   20598   20607  -20616   20610       1
   20592   20598   20589   20601       1   20592   20598   20607   20616       1
   20589   20598   20607   20616       1   20589   20601  -20610   20616       1
   20583   20565   20580   20589       1   20583   20592  -20598   20589       1
   20583   20592   20598   20607       1   20580   20565   20583   20592       1
   20580   20589  -20598   20592       1   20580   20589   20598   20607       1
   20580   20589   20601   20610       1   20568   20580   20565   20583       1
   20568   20580   20589   20598       1   20568   20580   20589   20601       1
   20565   20580   20589   20598       1   20565   20580   20589   20601       1
   20565   20583  -20592   20598       1   20559   20544   20565   20580       1
   20559   20544   20565   20583       1   20547   20529   20544   20559       1
   20547   20529   20544   20565       1   20547   20568  -20580   20565       1
   20547   20568   20580   20589       1   20544   20529   20547   20568       1
   20544   20565  -20580   20568       1   20544   20565   20580   20589       1
   20544   20565   20583   20592       1   20541   20526   20538   20550       1
   20541   20559   20544   20565       1   20538   20526   20541   20559       1
   20529   20520   20523   20532       1   20529   20520   20526   20538       1
   20529   20520   20526   20541       1   20529   20544  -20559   20541       1
   20529   20544   20565   20580       1   20529   20544   20565   20583       1
   20529   20547  -20568   20580       1   20526   20520   20523   20532       1
   20526   20520   20529   20544       1   20526   20520   20529   20547       1
   20526   20538  -20550   20532       1   20526   20541  -20559   20544       1
   20523   20520   20526   20538       1   20523   20520   20526   20541       1
   20523   20520   20529   20544       1   20523   20520   20529   20547       1
   20523   20532  -20550   20538       1   20520   20523   20532   20550       1
   20520   20526  -20538   20550       1   20520   20526   20541   20559       1
   20520   20529  -20544   20559       1   20520   20529   20544   20565       1
   20520   20529   20547   20568       1   20709   20697   20706   20715       1
   20709   20718  -20724   20715       1   20706   20697   20709   20718       1
   20706   20715  -20724   20718       1   20700   20706   20697   20709       1
   20700   20706   20715   20724       1   20697   20706   20715   20724       1
   20697   20709  -20718   20724       1   20691   20673   20688   20697       1
   20691   20700  -20706   20697       1   20691   20700   20706   20715       1
   20688   20673   20691   20700       1   20688   20697  -20706   20700       1
   20688   20697   20706   20715       1   20688   20697   20709   20718       1
   20676   20688   20673   20691       1   20676   20688   20697   20706       1
   20676   20688   20697   20709       1   20673   20688   20697   20706       1
   20673   20688   20697   20709       1   20673   20691  -20700   20706       1
   20667   20652   20673   20688       1   20667   20652   20673   20691       1
   20655   20637   20652   20667       1   20655   20637   20652   20673       1
   20655   20676  -20688   20673       1   20655   20676   20688   20697       1
   20652   20637   20655   20676       1   20652   20673  -20688   20676       1
   20652   20673   20688   20697       1   20652   20673   20691   20700       1
   20649   20634   20646   20658       1   20649   20667   20652   20673       1
   20646   20634   20649   20667       1   20637   20628   20631   20640       1
   20637   20628   20634   20646       1   20637   20628   20634   20649       1
   20637   20652  -20667   20649       1   20637   20652   20673   20688       1
   20637   20652   20673   20691       1   20637   20655  -20676   20688       1
   20634   20628   20631   20640       1   20634   20628   20637   20652       1
   20634   20628   20637   20655       1   20634   20646  -20658   20640       1
   20634   20649  -20667   20652       1   20631   20628   20634   20646       1
   20631   20628   20634   20649       1   20631   20628   20637   20652       1
   20631   20628   20637   20655       1   20631   20640  -20658   20646       1
   20628   20631   20640   20658       1   20628   20634  -20646   20658       1
   20628   20634   20649   20667       1   20628   20637  -20652   20667       1
   20628   20637   20652   20673       1   20628   20637   20655   20676       1
   20817   20805   20814   20823       1   20817   20826  -20832   20823       1
   20814   20805   20817   20826       1   20814   20823  -20832   20826       1
   20808   20814   20805   20817       1   20808   20814   20823   20832       1
   20805   20814   20823   20832       1   20805   20817  -20826   20832       1
   20799   20781   20796   20805       1   20799   20808  -20814   20805       1
   20799   20808   20814   20823       1   20796   20781   20799   20808       1
   20796   20805  -20814   20808       1   20796   20805   20814   20823       1
   20796   20805   20817   20826       1   20784   20796   20781   20799       1
   20784   20796   20805   20814       1   20784   20796   20805   20817       1
   20781   20796   20805   20814       1   20781   20796   20805   20817       1
   20781   20799  -20808   20814       1   20775   20760   20781   20796       1
   20775   20760   20781   20799       1   20763   20745   20760   20775       1
   20763   20745   20760   20781       1   20763   20784  -20796   20781       1
   20763   20784   20796   20805       1   20760   20745   20763   20784       1
   20760   20781  -20796   20784       1   20760   20781   20796   20805       1
   20760   20781   20799   20808       1   20757   20742   20754   20766       1
   20757   20775   20760   20781       1   20754   20742   20757   20775       1
   20745   20736   20739   20748       1   20745   20736   20742   20754       1
   20745   20736   20742   20757       1   20745   20760  -20775   20757       1
   20745   20760   20781   20796       1   20745   20760   20781   20799       1
   20745   20763  -20784   20796       1   20742   20736   20739   20748       1
   20742   20736   20745   20760       1   20742   20736   20745   20763       1
   20742   20754  -20766   20748       1   20742   20757  -20775   20760       1
   20739   20736   20742   20754       1   20739   20736   20742   20757       1
   20739   20736   20745   20760       1   20739   20736   20745   20763       1
   20739   20748  -20766   20754       1   20736   20739   20748   20766       1
   20736   20742  -20754   20766       1   20736   20742   20757   20775       1
   20736   20745  -20760   20775       1   20736   20745   20760   20781       1
   20736   20745   20763   20784       1   20925   20913   20922   20931       1
   20925   20934  -20940   20931       1   20922   20913   20925   20934       1
   20922   20931  -20940   20934       1   20916   20922   20913   20925       1
   20916   20922   20931   20940       1   20913   20922   20931   20940       1
   20913   20925  -20934   20940       1   20907   20889   20904   20913       1
   20907   20916  -20922   20913       1   20907   20916   20922   20931       1
   20904   20889   20907   20916       1   20904   20913  -20922   20916       1
   20904   20913   20922   20931       1   20904   20913   20925   20934       1
   20892   20904   20889   20907       1   20892   20904   20913   20922       1
   20892   20904   20913   20925       1   20889   20904   20913   20922       1
   20889   20904   20913   20925       1   20889   20907  -20916   20922       1
   20883   20868   20889   20904       1   20883   20868   20889   20907       1
   20871   20853   20868   20883       1   20871   20853   20868   20889       1
   20871   20892  -20904   20889       1   20871   20892   20904   20913       1
   20868   20853   20871   20892       1   20868   20889  -20904   20892       1
   20868   20889   20904   20913       1   20868   20889   20907   20916       1
   20865   20850   20862   20874       1   20865   20883   20868   20889       1
   20862   20850   20865   20883       1   20853   20844   20847   20856       1
   20853   20844   20850   20862       1   20853   20844   20850   20865       1
   20853   20868  -20883   20865       1   20853   20868   20889   20904       1
   20853   20868   20889   20907       1   20853   20871  -20892   20904       1
   20850   20844   20847   20856       1   20850   20844   20853   20868       1
   20850   20844   20853   20871       1   20850   20862  -20874   20856       1
   20850   20865  -20883   20868       1   20847   20844   20850   20862       1
   20847   20844   20850   20865       1   20847   20844   20853   20868       1
   20847   20844   20853   20871       1   20847   20856  -20874   20862       1
   20844   20847   20856   20874       1   20844   20850  -20862   20874       1
   20844   20850   20865   20883       1   20844   20853  -20868   20883       1
   20844   20853   20868   20889       1   20844   20853   20871   20892       1
   21033   21021   21030   21039       1   21033   21042  -21048   21039       1
   21030   21021   21033   21042       1   21030   21039  -21048   21042       1
   21024   21030   21021   21033       1   21024   21030   21039   21048       1
   21021   21030   21039   21048       1   21021   21033  -21042   21048       1
   21015   20997   21012   21021       1   21015   21024  -21030   21021       1
   21015   21024   21030   21039       1   21012   20997   21015   21024       1
   21012   21021  -21030   21024       1   21012   21021   21030   21039       1
   21012   21021   21033   21042       1   21000   21012   20997   21015       1
   21000   21012   21021   21030       1   21000   21012   21021   21033       1
   20997   21012   21021   21030       1   20997   21012   21021   21033       1
   20997   21015  -21024   21030       1   20991   20976   20997   21012       1
   20991   20976   20997   21015       1   20979   20961   20976   20991       1
   20979   20961   20976   20997       1   20979   21000  -21012   20997       1
   20979   21000   21012   21021       1   20976   20961   20979   21000       1
   20976   20997  -21012   21000       1   20976   20997   21012   21021       1
   20976   20997   21015   21024       1   20973   20958   20970   20982       1
   20973   20991   20976   20997       1   20970   20958   20973   20991       1
   20961   20952   20955   20964       1   20961   20952   20958   20970       1
   20961   20952   20958   20973       1   20961   20976  -20991   20973       1
   20961   20976   20997   21012       1   20961   20976   20997   21015       1
   20961   20979  -21000   21012       1   20958   20952   20955   20964       1
   20958   20952   20961   20976       1   20958   20952   20961   20979       1
   20958   20970  -20982   20964       1   20958   20973  -20991   20976       1
   20955   20952   20958   20970       1   20955   20952   20958   20973       1
   20955   20952   20961   20976       1   20955   20952   20961   20979       1
   20955   20964  -20982   20970       1   20952   20955   20964   20982       1
   20952   20958  -20970   20982       1   20952   20958   20973   20991       1
   20952   20961  -20976   20991       1   20952   20961   20976   20997       1
   20952   20961   20979   21000       1   21141   21129   21138   21147       1
   21141   21150  -21156   21147       1   21138   21129   21141   21150       1
   21138   21147  -21156   21150       1   21132   21138   21129   21141       1
   21132   21138   21147   21156       1   21129   21138   21147   21156       1
   21129   21141  -21150   21156       1   21123   21105   21120   21129       1
   21123   21132  -21138   21129       1   21123   21132   21138   21147       1
   21120   21105   21123   21132       1   21120   21129  -21138   21132       1
   21120   21129   21138   21147       1   21120   21129   21141   21150       1
   21108   21120   21105   21123       1   21108   21120   21129   21138       1
   21108   21120   21129   21141       1   21105   21120   21129   21138       1
   21105   21120   21129   21141       1   21105   21123  -21132   21138       1
   21099   21084   21105   21120       1   21099   21084   21105   21123       1
   21087   21069   21084   21099       1   21087   21069   21084   21105       1
   21087   21108  -21120   21105       1   21087   21108   21120   21129       1
   21084   21069   21087   21108       1   21084   21105  -21120   21108       1
   21084   21105   21120   21129       1   21084   21105   21123   21132       1
   21081   21066   21078   21090       1   21081   21099   21084   21105       1
   21078   21066   21081   21099       1   21069   21060   21063   21072       1
   21069   21060   21066   21078       1   21069   21060   21066   21081       1
   21069   21084  -21099   21081       1   21069   21084   21105   21120       1
   21069   21084   21105   21123       1   21069   21087  -21108   21120       1
   21066   21060   21063   21072       1   21066   21060   21069   21084       1
   21066   21060   21069   21087       1   21066   21078  -21090   21072       1
   21066   21081  -21099   21084       1   21063   21060   21066   21078       1
   21063   21060   21066   21081       1   21063   21060   21069   21084       1
   21063   21060   21069   21087       1   21063   21072  -21090   21078       1
   21060   21063   21072   21090       1   21060   21066  -21078   21090       1
   21060   21066   21081   21099       1   21060   21069  -21084   21099       1
   21060   21069   21084   21105       1   21060   21069   21087   21108       1
   21249   21237   21246   21255       1   21249   21258  -21264   21255       1
   21246   21237   21249   21258       1   21246   21255  -21264   21258       1
   21240   21246   21237   21249       1   21240   21246   21255   21264       1
   21237   21246   21255   21264       1   21237   21249  -21258   21264       1
   21231   21213   21228   21237       1   21231   21240  -21246   21237       1
   21231   21240   21246   21255       1   21228   21213   21231   21240       1
   21228   21237  -21246   21240       1   21228   21237   21246   21255       1
   21228   21237   21249   21258       1   21216   21228   21213   21231       1
   21216   21228   21237   21246       1   21216   21228   21237   21249       1
   21213   21228   21237   21246       1   21213   21228   21237   21249       1
   21213   21231  -21240   21246       1   21207   21192   21213   21228       1
   21207   21192   21213   21231       1   21195   21177   21192   21207       1
   21195   21177   21192   21213       1   21195   21216  -21228   21213       1
   21195   21216   21228   21237       1   21192   21177   21195   21216       1
   21192   21213  -21228   21216       1   21192   21213   21228   21237       1
   21192   21213   21231   21240       1   21189   21174   21186   21198       1
   21189   21207   21192   21213       1   21186   21174   21189   21207       1
   21177   21168   21171   21180       1   21177   21168   21174   21186       1
   21177   21168   21174   21189       1   21177   21192  -21207   21189       1
   21177   21192   21213   21228       1   21177   21192   21213   21231       1
   21177   21195  -21216   21228       1   21174   21168   21171   21180       1
   21174   21168   21177   21192       1   21174   21168   21177   21195       1
   21174   21186  -21198   21180       1   21174   21189  -21207   21192       1
   21171   21168   21174   21186       1   21171   21168   21174   21189       1
   21171   21168   21177   21192       1   21171   21168   21177   21195       1
   21171   21180  -21198   21186       1   21168   21171   21180   21198       1
   21168   21174  -21186   21198       1   21168   21174   21189   21207       1
   21168   21177  -21192   21207       1   21168   21177   21192   21213       1
   21168   21177   21195   21216       1   21357   21345   21354   21363       1
   21357   21366  -21372   21363       1   21354   21345   21357   21366       1
   21354   21363  -21372   21366       1   21348   21354   21345   21357       1
   21348   21354   21363   21372       1   21345   21354   21363   21372       1
   21345   21357  -21366   21372       1   21339   21321   21336   21345       1
   21339   21348  -21354   21345       1   21339   21348   21354   21363       1
   21336   21321   21339   21348       1   21336   21345  -21354   21348       1
   21336   21345   21354   21363       1   21336   21345   21357   21366       1
   21324   21336   21321   21339       1   21324   21336   21345   21354       1
   21324   21336   21345   21357       1   21321   21336   21345   21354       1
   21321   21336   21345   21357       1   21321   21339  -21348   21354       1
   21315   21300   21321   21336       1   21315   21300   21321   21339       1
   21303   21285   21300   21315       1   21303   21285   21300   21321       1
   21303   21324  -21336   21321       1   21303   21324   21336   21345       1
   21300   21285   21303   21324       1   21300   21321  -21336   21324       1
   21300   21321   21336   21345       1   21300   21321   21339   21348       1
   21297   21282   21294   21306       1   21297   21315   21300   21321       1
   21294   21282   21297   21315       1   21285   21276   21279   21288       1
   21285   21276   21282   21294       1   21285   21276   21282   21297       1
   21285   21300  -21315   21297       1   21285   21300   21321   21336       1
   21285   21300   21321   21339       1   21285   21303  -21324   21336       1
   21282   21276   21279   21288       1   21282   21276   21285   21300       1
   21282   21276   21285   21303       1   21282   21294  -21306   21288       1
   21282   21297  -21315   21300       1   21279   21276   21282   21294       1
   21279   21276   21282   21297       1   21279   21276   21285   21300       1
   21279   21276   21285   21303       1   21279   21288  -21306   21294       1
   21276   21279   21288   21306       1   21276   21282  -21294   21306       1
   21276   21282   21297   21315       1   21276   21285  -21300   21315       1
   21276   21285   21300   21321       1   21276   21285   21303   21324       1
   21465   21453   21462   21471       1   21465   21474  -21480   21471       1
   21462   21453   21465   21474       1   21462   21471  -21480   21474       1
   21456   21462   21453   21465       1   21456   21462   21471   21480       1
   21453   21462   21471   21480       1   21453   21465  -21474   21480       1
   21447   21429   21444   21453       1   21447   21456  -21462   21453       1
   21447   21456   21462   21471       1   21444   21429   21447   21456       1
   21444   21453  -21462   21456       1   21444   21453   21462   21471       1
   21444   21453   21465   21474       1   21432   21444   21429   21447       1
   21432   21444   21453   21462       1   21432   21444   21453   21465       1
   21429   21444   21453   21462       1   21429   21444   21453   21465       1
   21429   21447  -21456   21462       1   21423   21408   21429   21444       1
   21423   21408   21429   21447       1   21411   21393   21408   21423       1
   21411   21393   21408   21429       1   21411   21432  -21444   21429       1
   21411   21432   21444   21453       1   21408   21393   21411   21432       1
   21408   21429  -21444   21432       1   21408   21429   21444   21453       1
   21408   21429   21447   21456       1   21405   21390   21402   21414       1
   21405   21423   21408   21429       1   21402   21390   21405   21423       1
   21393   21384   21387   21396       1   21393   21384   21390   21402       1
   21393   21384   21390   21405       1   21393   21408  -21423   21405       1
   21393   21408   21429   21444       1   21393   21408   21429   21447       1
   21393   21411  -21432   21444       1   21390   21384   21387   21396       1
   21390   21384   21393   21408       1   21390   21384   21393   21411       1
   21390   21402  -21414   21396       1   21390   21405  -21423   21408       1
   21387   21384   21390   21402       1   21387   21384   21390   21405       1
   21387   21384   21393   21408       1   21387   21384   21393   21411       1
   21387   21396  -21414   21402       1   21384   21387   21396   21414       1
   21384   21390  -21402   21414       1   21384   21390   21405   21423       1
   21384   21393  -21408   21423       1   21384   21393   21408   21429       1
   21384   21393   21411   21432       1   21573   21561   21570   21579       1
   21573   21582  -21588   21579       1   21570   21561   21573   21582       1
   21570   21579  -21588   21582       1   21564   21570   21561   21573       1
   21564   21570   21579   21588       1   21561   21570   21579   21588       1
   21561   21573  -21582   21588       1   21555   21537   21552   21561       1
   21555   21564  -21570   21561       1   21555   21564   21570   21579       1
   21552   21537   21555   21564       1   21552   21561  -21570   21564       1
   21552   21561   21570   21579       1   21552   21561   21573   21582       1
   21540   21552   21537   21555       1   21540   21552   21561   21570       1
   21540   21552   21561   21573       1   21537   21552   21561   21570       1
   21537   21552   21561   21573       1   21537   21555  -21564   21570       1
   21531   21516   21537   21552       1   21531   21516   21537   21555       1
   21519   21501   21516   21531       1   21519   21501   21516   21537       1
   21519   21540  -21552   21537       1   21519   21540   21552   21561       1
   21516   21501   21519   21540       1   21516   21537  -21552   21540       1
   21516   21537   21552   21561       1   21516   21537   21555   21564       1
   21513   21498   21510   21522       1   21513   21531   21516   21537       1
   21510   21498   21513   21531       1   21501   21492   21495   21504       1
   21501   21492   21498   21510       1   21501   21492   21498   21513       1
   21501   21516  -21531   21513       1   21501   21516   21537   21552       1
   21501   21516   21537   21555       1   21501   21519  -21540   21552       1
   21498   21492   21495   21504       1   21498   21492   21501   21516       1
   21498   21492   21501   21519       1   21498   21510  -21522   21504       1
   21498   21513  -21531   21516       1   21495   21492   21498   21510       1
   21495   21492   21498   21513       1   21495   21492   21501   21516       1
   21495   21492   21501   21519       1   21495   21504  -21522   21510       1
   21492   21495   21504   21522       1   21492   21498  -21510   21522       1
   21492   21498   21513   21531       1   21492   21501  -21516   21531       1
   21492   21501   21516   21537       1   21492   21501   21519   21540       1
   21681   21669   21678   21687       1   21681   21690  -21696   21687       1
   21678   21669   21681   21690       1   21678   21687  -21696   21690       1
   21672   21678   21669   21681       1   21672   21678   21687   21696       1
   21669   21678   21687   21696       1   21669   21681  -21690   21696       1
   21663   21645   21660   21669       1   21663   21672  -21678   21669       1
   21663   21672   21678   21687       1   21660   21645   21663   21672       1
   21660   21669  -21678   21672       1   21660   21669   21678   21687       1
   21660   21669   21681   21690       1   21648   21660   21645   21663       1
   21648   21660   21669   21678       1   21648   21660   21669   21681       1
   21645   21660   21669   21678       1   21645   21660   21669   21681       1
   21645   21663  -21672   21678       1   21639   21624   21645   21660       1
   21639   21624   21645   21663       1   21627   21609   21624   21639       1
   21627   21609   21624   21645       1   21627   21648  -21660   21645       1
   21627   21648   21660   21669       1   21624   21609   21627   21648       1
   21624   21645  -21660   21648       1   21624   21645   21660   21669       1
   21624   21645   21663   21672       1   21621   21606   21618   21630       1
   21621   21639   21624   21645       1   21618   21606   21621   21639       1
   21609   21600   21603   21612       1   21609   21600   21606   21618       1
   21609   21600   21606   21621       1   21609   21624  -21639   21621       1
   21609   21624   21645   21660       1   21609   21624   21645   21663       1
   21609   21627  -21648   21660       1   21606   21600   21603   21612       1
   21606   21600   21609   21624       1   21606   21600   21609   21627       1
   21606   21618  -21630   21612       1   21606   21621  -21639   21624       1
   21603   21600   21606   21618       1   21603   21600   21606   21621       1
   21603   21600   21609   21624       1   21603   21600   21609   21627       1
   21603   21612  -21630   21618       1   21600   21603   21612   21630       1
   21600   21606  -21618   21630       1   21600   21606   21621   21639       1
   21600   21609  -21624   21639       1   21600   21609   21624   21645       1
   21600   21609   21627   21648       1   21789   21777   21786   21795       1
   21789   21798  -21804   21795       1   21786   21777   21789   21798       1
   21786   21795  -21804   21798       1   21780   21786   21777   21789       1
   21780   21786   21795   21804       1   21777   21786   21795   21804       1
   21777   21789  -21798   21804       1   21771   21753   21768   21777       1
   21771   21780  -21786   21777       1   21771   21780   21786   21795       1
   21768   21753   21771   21780       1   21768   21777  -21786   21780       1
   21768   21777   21786   21795       1   21768   21777   21789   21798       1
   21756   21768   21753   21771       1   21756   21768   21777   21786       1
   21756   21768   21777   21789       1   21753   21768   21777   21786       1
   21753   21768   21777   21789       1   21753   21771  -21780   21786       1
   21747   21732   21753   21768       1   21747   21732   21753   21771       1
   21735   21717   21732   21747       1   21735   21717   21732   21753       1
   21735   21756  -21768   21753       1   21735   21756   21768   21777       1
   21732   21717   21735   21756       1   21732   21753  -21768   21756       1
   21732   21753   21768   21777       1   21732   21753   21771   21780       1
   21729   21714   21726   21738       1   21729   21747   21732   21753       1
   21726   21714   21729   21747       1   21717   21708   21711   21720       1
   21717   21708   21714   21726       1   21717   21708   21714   21729       1
   21717   21732  -21747   21729       1   21717   21732   21753   21768       1
   21717   21732   21753   21771       1   21717   21735  -21756   21768       1
   21714   21708   21711   21720       1   21714   21708   21717   21732       1
   21714   21708   21717   21735       1   21714   21726  -21738   21720       1
   21714   21729  -21747   21732       1   21711   21708   21714   21726       1
   21711   21708   21714   21729       1   21711   21708   21717   21732       1
   21711   21708   21717   21735       1   21711   21720  -21738   21726       1
   21708   21711   21720   21738       1   21708   21714  -21726   21738       1
   21708   21714   21729   21747       1   21708   21717  -21732   21747       1
   21708   21717   21732   21753       1   21708   21717   21735   21756       1
   21897   21885   21894   21903       1   21897   21906  -21912   21903       1
   21894   21885   21897   21906       1   21894   21903  -21912   21906       1
   21888   21894   21885   21897       1   21888   21894   21903   21912       1
   21885   21894   21903   21912       1   21885   21897  -21906   21912       1
   21879   21861   21876   21885       1   21879   21888  -21894   21885       1
   21879   21888   21894   21903       1   21876   21861   21879   21888       1
   21876   21885  -21894   21888       1   21876   21885   21894   21903       1
   21876   21885   21897   21906       1   21864   21876   21861   21879       1
   21864   21876   21885   21894       1   21864   21876   21885   21897       1
   21861   21876   21885   21894       1   21861   21876   21885   21897       1
   21861   21879  -21888   21894       1   21855   21840   21861   21876       1
   21855   21840   21861   21879       1   21843   21825   21840   21855       1
   21843   21825   21840   21861       1   21843   21864  -21876   21861       1
   21843   21864   21876   21885       1   21840   21825   21843   21864       1
   21840   21861  -21876   21864       1   21840   21861   21876   21885       1
   21840   21861   21879   21888       1   21837   21822   21834   21846       1
   21837   21855   21840   21861       1   21834   21822   21837   21855       1
   21825   21816   21819   21828       1   21825   21816   21822   21834       1
   21825   21816   21822   21837       1   21825   21840  -21855   21837       1
   21825   21840   21861   21876       1   21825   21840   21861   21879       1
   21825   21843  -21864   21876       1   21822   21816   21819   21828       1
   21822   21816   21825   21840       1   21822   21816   21825   21843       1
   21822   21834  -21846   21828       1   21822   21837  -21855   21840       1
   21819   21816   21822   21834       1   21819   21816   21822   21837       1
   21819   21816   21825   21840       1   21819   21816   21825   21843       1
   21819   21828  -21846   21834       1   21816   21819   21828   21846       1
   21816   21822  -21834   21846       1   21816   21822   21837   21855       1
   21816   21825  -21840   21855       1   21816   21825   21840   21861       1
   21816   21825   21843   21864       1   22005   21993   22002   22011       1
   22005   22014  -22020   22011       1   22002   21993   22005   22014       1
   22002   22011  -22020   22014       1   21996   22002   21993   22005       1
   21996   22002   22011   22020       1   21993   22002   22011   22020       1
   21993   22005  -22014   22020       1   21987   21969   21984   21993       1
   21987   21996  -22002   21993       1   21987   21996   22002   22011       1
   21984   21969   21987   21996       1   21984   21993  -22002   21996       1
   21984   21993   22002   22011       1   21984   21993   22005   22014       1
   21972   21984   21969   21987       1   21972   21984   21993   22002       1
   21972   21984   21993   22005       1   21969   21984   21993   22002       1
   21969   21984   21993   22005       1   21969   21987  -21996   22002       1
   21963   21948   21969   21984       1   21963   21948   21969   21987       1
   21951   21933   21948   21963       1   21951   21933   21948   21969       1
   21951   21972  -21984   21969       1   21951   21972   21984   21993       1
   21948   21933   21951   21972       1   21948   21969  -21984   21972       1
   21948   21969   21984   21993       1   21948   21969   21987   21996       1
   21945   21930   21942   21954       1   21945   21963   21948   21969       1
   21942   21930   21945   21963       1   21933   21924   21927   21936       1
   21933   21924   21930   21942       1   21933   21924   21930   21945       1
   21933   21948  -21963   21945       1   21933   21948   21969   21984       1
   21933   21948   21969   21987       1   21933   21951  -21972   21984       1
   21930   21924   21927   21936       1   21930   21924   21933   21948       1
   21930   21924   21933   21951       1   21930   21942  -21954   21936       1
   21930   21945  -21963   21948       1   21927   21924   21930   21942       1
   21927   21924   21930   21945       1   21927   21924   21933   21948       1
   21927   21924   21933   21951       1   21927   21936  -21954   21942       1
   21924   21927   21936   21954       1   21924   21930  -21942   21954       1
   21924   21930   21945   21963       1   21924   21933  -21948   21963       1
   21924   21933   21948   21969       1   21924   21933   21951   21972       1
   22113   22101   22110   22119       1   22113   22122  -22128   22119       1
   22110   22101   22113   22122       1   22110   22119  -22128   22122       1
   22104   22110   22101   22113       1   22104   22110   22119   22128       1
   22101   22110   22119   22128       1   22101   22113  -22122   22128       1
   22095   22077   22092   22101       1   22095   22104  -22110   22101       1
   22095   22104   22110   22119       1   22092   22077   22095   22104       1
   22092   22101  -22110   22104       1   22092   22101   22110   22119       1
   22092   22101   22113   22122       1   22080   22092   22077   22095       1
   22080   22092   22101   22110       1   22080   22092   22101   22113       1
   22077   22092   22101   22110       1   22077   22092   22101   22113       1
   22077   22095  -22104   22110       1   22071   22056   22077   22092       1
   22071   22056   22077   22095       1   22059   22041   22056   22071       1
   22059   22041   22056   22077       1   22059   22080  -22092   22077       1
   22059   22080   22092   22101       1   22056   22041   22059   22080       1
   22056   22077  -22092   22080       1   22056   22077   22092   22101       1
   22056   22077   22095   22104       1   22053   22038   22050   22062       1
   22053   22071   22056   22077       1   22050   22038   22053   22071       1
   22041   22032   22035   22044       1   22041   22032   22038   22050       1
   22041   22032   22038   22053       1   22041   22056  -22071   22053       1
   22041   22056   22077   22092       1   22041   22056   22077   22095       1
   22041   22059  -22080   22092       1   22038   22032   22035   22044       1
   22038   22032   22041   22056       1   22038   22032   22041   22059       1
   22038   22050  -22062   22044       1   22038   22053  -22071   22056       1
   22035   22032   22038   22050       1   22035   22032   22038   22053       1
   22035   22032   22041   22056       1   22035   22032   22041   22059       1
   22035   22044  -22062   22050       1   22032   22035   22044   22062       1
   22032   22038  -22050   22062       1   22032   22038   22053   22071       1
   22032   22041  -22056   22071       1   22032   22041   22056   22077       1
   22032   22041   22059   22080       1   22221   22209   22218   22227       1
   22221   22230  -22236   22227       1   22218   22209   22221   22230       1
   22218   22227  -22236   22230       1   22212   22218   22209   22221       1
   22212   22218   22227   22236       1   22209   22218   22227   22236       1
   22209   22221  -22230   22236       1   22203   22185   22200   22209       1
   22203   22212  -22218   22209       1   22203   22212   22218   22227       1
   22200   22185   22203   22212       1   22200   22209  -22218   22212       1
   22200   22209   22218   22227       1   22200   22209   22221   22230       1
   22188   22200   22185   22203       1   22188   22200   22209   22218       1
   22188   22200   22209   22221       1   22185   22200   22209   22218       1
   22185   22200   22209   22221       1   22185   22203  -22212   22218       1
   22179   22164   22185   22200       1   22179   22164   22185   22203       1
   22167   22149   22164   22179       1   22167   22149   22164   22185       1
   22167   22188  -22200   22185       1   22167   22188   22200   22209       1
   22164   22149   22167   22188       1   22164   22185  -22200   22188       1
   22164   22185   22200   22209       1   22164   22185   22203   22212       1
   22161   22146   22158   22170       1   22161   22179   22164   22185       1
   22158   22146   22161   22179       1   22149   22140   22143   22152       1
   22149   22140   22146   22158       1   22149   22140   22146   22161       1
   22149   22164  -22179   22161       1   22149   22164   22185   22200       1
   22149   22164   22185   22203       1   22149   22167  -22188   22200       1
   22146   22140   22143   22152       1   22146   22140   22149   22164       1
   22146   22140   22149   22167       1   22146   22158  -22170   22152       1
   22146   22161  -22179   22164       1   22143   22140   22146   22158       1
   22143   22140   22146   22161       1   22143   22140   22149   22164       1
   22143   22140   22149   22167       1   22143   22152  -22170   22158       1
   22140   22143   22152   22170       1   22140   22146  -22158   22170       1
   22140   22146   22161   22179       1   22140   22149  -22164   22179       1
   22140   22149   22164   22185       1   22140   22149   22167   22188       1
   22329   22317   22326   22335       1   22329   22338  -22344   22335       1
   22326   22317   22329   22338       1   22326   22335  -22344   22338       1
   22320   22326   22317   22329       1   22320   22326   22335   22344       1
   22317   22326   22335   22344       1   22317   22329  -22338   22344       1
   22311   22293   22308   22317       1   22311   22320  -22326   22317       1
   22311   22320   22326   22335       1   22308   22293   22311   22320       1
   22308   22317  -22326   22320       1   22308   22317   22326   22335       1
   22308   22317   22329   22338       1   22296   22308   22293   22311       1
   22296   22308   22317   22326       1   22296   22308   22317   22329       1
   22293   22308   22317   22326       1   22293   22308   22317   22329       1
   22293   22311  -22320   22326       1   22287   22272   22293   22308       1
   22287   22272   22293   22311       1   22275   22257   22272   22287       1
   22275   22257   22272   22293       1   22275   22296  -22308   22293       1
   22275   22296   22308   22317       1   22272   22257   22275   22296       1
   22272   22293  -22308   22296       1   22272   22293   22308   22317       1
   22272   22293   22311   22320       1   22269   22254   22266   22278       1
   22269   22287   22272   22293       1   22266   22254   22269   22287       1
   22257   22248   22251   22260       1   22257   22248   22254   22266       1
   22257   22248   22254   22269       1   22257   22272  -22287   22269       1
   22257   22272   22293   22308       1   22257   22272   22293   22311       1
   22257   22275  -22296   22308       1   22254   22248   22251   22260       1
   22254   22248   22257   22272       1   22254   22248   22257   22275       1
   22254   22266  -22278   22260       1   22254   22269  -22287   22272       1
   22251   22248   22254   22266       1   22251   22248   22254   22269       1
   22251   22248   22257   22272       1   22251   22248   22257   22275       1
   22251   22260  -22278   22266       1   22248   22251   22260   22278       1
   22248   22254  -22266   22278       1   22248   22254   22269   22287       1
   22248   22257  -22272   22287       1   22248   22257   22272   22293       1
   22248   22257   22275   22296       1   22437   22425   22434   22443       1
   22437   22446  -22452   22443       1   22434   22425   22437   22446       1
   22434   22443  -22452   22446       1   22428   22434   22425   22437       1
   22428   22434   22443   22452       1   22425   22434   22443   22452       1
   22425   22437  -22446   22452       1   22419   22401   22416   22425       1
   22419   22428  -22434   22425       1   22419   22428   22434   22443       1
   22416   22401   22419   22428       1   22416   22425  -22434   22428       1
   22416   22425   22434   22443       1   22416   22425   22437   22446       1
   22404   22416   22401   22419       1   22404   22416   22425   22434       1
   22404   22416   22425   22437       1   22401   22416   22425   22434       1
   22401   22416   22425   22437       1   22401   22419  -22428   22434       1
   22395   22380   22401   22416       1   22395   22380   22401   22419       1
   22383   22365   22380   22395       1   22383   22365   22380   22401       1
   22383   22404  -22416   22401       1   22383   22404   22416   22425       1
   22380   22365   22383   22404       1   22380   22401  -22416   22404       1
   22380   22401   22416   22425       1   22380   22401   22419   22428       1
   22377   22362   22374   22386       1   22377   22395   22380   22401       1
   22374   22362   22377   22395       1   22365   22356   22359   22368       1
   22365   22356   22362   22374       1   22365   22356   22362   22377       1
   22365   22380  -22395   22377       1   22365   22380   22401   22416       1
   22365   22380   22401   22419       1   22365   22383  -22404   22416       1
   22362   22356   22359   22368       1   22362   22356   22365   22380       1
   22362   22356   22365   22383       1   22362   22374  -22386   22368       1
   22362   22377  -22395   22380       1   22359   22356   22362   22374       1
   22359   22356   22362   22377       1   22359   22356   22365   22380       1
   22359   22356   22365   22383       1   22359   22368  -22386   22374       1
   22356   22359   22368   22386       1   22356   22362  -22374   22386       1
   22356   22362   22377   22395       1   22356   22365  -22380   22395       1
   22356   22365   22380   22401       1   22356   22365   22383   22404       1
   22545   22533   22542   22551       1   22545   22554  -22560   22551       1
   22542   22533   22545   22554       1   22542   22551  -22560   22554       1
   22536   22542   22533   22545       1   22536   22542   22551   22560       1
   22533   22542   22551   22560       1   22533   22545  -22554   22560       1
   22527   22509   22524   22533       1   22527   22536  -22542   22533       1
   22527   22536   22542   22551       1   22524   22509   22527   22536       1
   22524   22533  -22542   22536       1   22524   22533   22542   22551       1
   22524   22533   22545   22554       1   22512   22524   22509   22527       1
   22512   22524   22533   22542       1   22512   22524   22533   22545       1
   22509   22524   22533   22542       1   22509   22524   22533   22545       1
   22509   22527  -22536   22542       1   22503   22488   22509   22524       1
   22503   22488   22509   22527       1   22491   22473   22488   22503       1
   22491   22473   22488   22509       1   22491   22512  -22524   22509       1
   22491   22512   22524   22533       1   22488   22473   22491   22512       1
   22488   22509  -22524   22512       1   22488   22509   22524   22533       1
   22488   22509   22527   22536       1   22485   22470   22482   22494       1
   22485   22503   22488   22509       1   22482   22470   22485   22503       1
   22473   22464   22467   22476       1   22473   22464   22470   22482       1
   22473   22464   22470   22485       1   22473   22488  -22503   22485       1
   22473   22488   22509   22524       1   22473   22488   22509   22527       1
   22473   22491  -22512   22524       1   22470   22464   22467   22476       1
   22470   22464   22473   22488       1   22470   22464   22473   22491       1
   22470   22482  -22494   22476       1   22470   22485  -22503   22488       1
   22467   22464   22470   22482       1   22467   22464   22470   22485       1
   22467   22464   22473   22488       1   22467   22464   22473   22491       1
   22467   22476  -22494   22482       1   22464   22467   22476   22494       1
   22464   22470  -22482   22494       1   22464   22470   22485   22503       1
   22464   22473  -22488   22503       1   22464   22473   22488   22509       1
   22464   22473   22491   22512       1   22653   22641   22650   22659       1
   22653   22662  -22668   22659       1   22650   22641   22653   22662       1
   22650   22659  -22668   22662       1   22644   22650   22641   22653       1
   22644   22650   22659   22668       1   22641   22650   22659   22668       1
   22641   22653  -22662   22668       1   22635   22617   22632   22641       1
   22635   22644  -22650   22641       1   22635   22644   22650   22659       1
   22632   22617   22635   22644       1   22632   22641  -22650   22644       1
   22632   22641   22650   22659       1   22632   22641   22653   22662       1
   22620   22632   22617   22635       1   22620   22632   22641   22650       1
   22620   22632   22641   22653       1   22617   22632   22641   22650       1
   22617   22632   22641   22653       1   22617   22635  -22644   22650       1
   22611   22596   22617   22632       1   22611   22596   22617   22635       1
   22599   22581   22596   22611       1   22599   22581   22596   22617       1
   22599   22620  -22632   22617       1   22599   22620   22632   22641       1
   22596   22581   22599   22620       1   22596   22617  -22632   22620       1
   22596   22617   22632   22641       1   22596   22617   22635   22644       1
   22593   22578   22590   22602       1   22593   22611   22596   22617       1
   22590   22578   22593   22611       1   22581   22572   22575   22584       1
   22581   22572   22578   22590       1   22581   22572   22578   22593       1
   22581   22596  -22611   22593       1   22581   22596   22617   22632       1
   22581   22596   22617   22635       1   22581   22599  -22620   22632       1
   22578   22572   22575   22584       1   22578   22572   22581   22596       1
   22578   22572   22581   22599       1   22578   22590  -22602   22584       1
   22578   22593  -22611   22596       1   22575   22572   22578   22590       1
   22575   22572   22578   22593       1   22575   22572   22581   22596       1
   22575   22572   22581   22599       1   22575   22584  -22602   22590       1
   22572   22575   22584   22602       1   22572   22578  -22590   22602       1
   22572   22578   22593   22611       1   22572   22581  -22596   22611       1
   22572   22581   22596   22617       1   22572   22581   22599   22620       1
   22761   22749   22758   22767       1   22761   22770  -22776   22767       1
   22758   22749   22761   22770       1   22758   22767  -22776   22770       1
   22752   22758   22749   22761       1   22752   22758   22767   22776       1
   22749   22758   22767   22776       1   22749   22761  -22770   22776       1
   22743   22725   22740   22749       1   22743   22752  -22758   22749       1
   22743   22752   22758   22767       1   22740   22725   22743   22752       1
   22740   22749  -22758   22752       1   22740   22749   22758   22767       1
   22740   22749   22761   22770       1   22728   22740   22725   22743       1
   22728   22740   22749   22758       1   22728   22740   22749   22761       1
   22725   22740   22749   22758       1   22725   22740   22749   22761       1
   22725   22743  -22752   22758       1   22719   22704   22725   22740       1
   22719   22704   22725   22743       1   22707   22689   22704   22719       1
   22707   22689   22704   22725       1   22707   22728  -22740   22725       1
   22707   22728   22740   22749       1   22704   22689   22707   22728       1
   22704   22725  -22740   22728       1   22704   22725   22740   22749       1
   22704   22725   22743   22752       1   22701   22686   22698   22710       1
   22701   22719   22704   22725       1   22698   22686   22701   22719       1
   22689   22680   22683   22692       1   22689   22680   22686   22698       1
   22689   22680   22686   22701       1   22689   22704  -22719   22701       1
   22689   22704   22725   22740       1   22689   22704   22725   22743       1
   22689   22707  -22728   22740       1   22686   22680   22683   22692       1
   22686   22680   22689   22704       1   22686   22680   22689   22707       1
   22686   22698  -22710   22692       1   22686   22701  -22719   22704       1
   22683   22680   22686   22698       1   22683   22680   22686   22701       1
   22683   22680   22689   22704       1   22683   22680   22689   22707       1
   22683   22692  -22710   22698       1   22680   22683   22692   22710       1
   22680   22686  -22698   22710       1   22680   22686   22701   22719       1
   22680   22689  -22704   22719       1   22680   22689   22704   22725       1
   22680   22689   22707   22728       1   22869   22857   22866   22875       1
   22869   22878  -22884   22875       1   22866   22857   22869   22878       1
   22866   22875  -22884   22878       1   22860   22866   22857   22869       1
   22860   22866   22875   22884       1   22857   22866   22875   22884       1
   22857   22869  -22878   22884       1   22851   22833   22848   22857       1
   22851   22860  -22866   22857       1   22851   22860   22866   22875       1
   22848   22833   22851   22860       1   22848   22857  -22866   22860       1
   22848   22857   22866   22875       1   22848   22857   22869   22878       1
   22836   22848   22833   22851       1   22836   22848   22857   22866       1
   22836   22848   22857   22869       1   22833   22848   22857   22866       1
   22833   22848   22857   22869       1   22833   22851  -22860   22866       1
   22827   22812   22833   22848       1   22827   22812   22833   22851       1
   22815   22797   22812   22827       1   22815   22797   22812   22833       1
   22815   22836  -22848   22833       1   22815   22836   22848   22857       1
   22812   22797   22815   22836       1   22812   22833  -22848   22836       1
   22812   22833   22848   22857       1   22812   22833   22851   22860       1
   22809   22794   22806   22818       1   22809   22827   22812   22833       1
   22806   22794   22809   22827       1   22797   22788   22791   22800       1
   22797   22788   22794   22806       1   22797   22788   22794   22809       1
   22797   22812  -22827   22809       1   22797   22812   22833   22848       1
   22797   22812   22833   22851       1   22797   22815  -22836   22848       1
   22794   22788   22791   22800       1   22794   22788   22797   22812       1
   22794   22788   22797   22815       1   22794   22806  -22818   22800       1
   22794   22809  -22827   22812       1   22791   22788   22794   22806       1
   22791   22788   22794   22809       1   22791   22788   22797   22812       1
   22791   22788   22797   22815       1   22791   22800  -22818   22806       1
   22788   22791   22800   22818       1   22788   22794  -22806   22818       1
   22788   22794   22809   22827       1   22788   22797  -22812   22827       1
   22788   22797   22812   22833       1   22788   22797   22815   22836       1
   22977   22965   22974   22983       1   22977   22986  -22992   22983       1
   22974   22965   22977   22986       1   22974   22983  -22992   22986       1
   22968   22974   22965   22977       1   22968   22974   22983   22992       1
   22965   22974   22983   22992       1   22965   22977  -22986   22992       1
   22959   22941   22956   22965       1   22959   22968  -22974   22965       1
   22959   22968   22974   22983       1   22956   22941   22959   22968       1
   22956   22965  -22974   22968       1   22956   22965   22974   22983       1
   22956   22965   22977   22986       1   22944   22956   22941   22959       1
   22944   22956   22965   22974       1   22944   22956   22965   22977       1
   22941   22956   22965   22974       1   22941   22956   22965   22977       1
   22941   22959  -22968   22974       1   22935   22920   22941   22956       1
   22935   22920   22941   22959       1   22923   22905   22920   22935       1
   22923   22905   22920   22941       1   22923   22944  -22956   22941       1
   22923   22944   22956   22965       1   22920   22905   22923   22944       1
   22920   22941  -22956   22944       1   22920   22941   22956   22965       1
   22920   22941   22959   22968       1   22917   22902   22914   22926       1
   22917   22935   22920   22941       1   22914   22902   22917   22935       1
   22905   22896   22899   22908       1   22905   22896   22902   22914       1
   22905   22896   22902   22917       1   22905   22920  -22935   22917       1
   22905   22920   22941   22956       1   22905   22920   22941   22959       1
   22905   22923  -22944   22956       1   22902   22896   22899   22908       1
   22902   22896   22905   22920       1   22902   22896   22905   22923       1
   22902   22914  -22926   22908       1   22902   22917  -22935   22920       1
   22899   22896   22902   22914       1   22899   22896   22902   22917       1
   22899   22896   22905   22920       1   22899   22896   22905   22923       1
   22899   22908  -22926   22914       1   22896   22899   22908   22926       1
   22896   22902  -22914   22926       1   22896   22902   22917   22935       1
   22896   22905  -22920   22935       1   22896   22905   22920   22941       1
   22896   22905   22923   22944       1   23085   23073   23082   23091       1
   23085   23094  -23100   23091       1   23082   23073   23085   23094       1
   23082   23091  -23100   23094       1   23076   23082   23073   23085       1
   23076   23082   23091   23100       1   23073   23082   23091   23100       1
   23073   23085  -23094   23100       1   23067   23049   23064   23073       1
   23067   23076  -23082   23073       1   23067   23076   23082   23091       1
   23064   23049   23067   23076       1   23064   23073  -23082   23076       1
   23064   23073   23082   23091       1   23064   23073   23085   23094       1
   23052   23064   23049   23067       1   23052   23064   23073   23082       1
   23052   23064   23073   23085       1   23049   23064   23073   23082       1
   23049   23064   23073   23085       1   23049   23067  -23076   23082       1
   23043   23028   23049   23064       1   23043   23028   23049   23067       1
   23031   23013   23028   23043       1   23031   23013   23028   23049       1
   23031   23052  -23064   23049       1   23031   23052   23064   23073       1
   23028   23013   23031   23052       1   23028   23049  -23064   23052       1
   23028   23049   23064   23073       1   23028   23049   23067   23076       1
   23025   23010   23022   23034       1   23025   23043   23028   23049       1
   23022   23010   23025   23043       1   23013   23004   23007   23016       1
   23013   23004   23010   23022       1   23013   23004   23010   23025       1
   23013   23028  -23043   23025       1   23013   23028   23049   23064       1
   23013   23028   23049   23067       1   23013   23031  -23052   23064       1
   23010   23004   23007   23016       1   23010   23004   23013   23028       1
   23010   23004   23013   23031       1   23010   23022  -23034   23016       1
   23010   23025  -23043   23028       1   23007   23004   23010   23022       1
   23007   23004   23010   23025       1   23007   23004   23013   23028       1
   23007   23004   23013   23031       1   23007   23016  -23034   23022       1
   23004   23007   23016   23034       1   23004   23010  -23022   23034       1
   23004   23010   23025   23043       1   23004   23013  -23028   23043       1
   23004   23013   23028   23049       1   23004   23013   23031   23052       1
   23193   23181   23190   23199       1   23193   23202  -23208   23199       1
   23190   23181   23193   23202       1   23190   23199  -23208   23202       1
   23184   23190   23181   23193       1   23184   23190   23199   23208       1
   23181   23190   23199   23208       1   23181   23193  -23202   23208       1
   23175   23157   23172   23181       1   23175   23184  -23190   23181       1
   23175   23184   23190   23199       1   23172   23157   23175   23184       1
   23172   23181  -23190   23184       1   23172   23181   23190   23199       1
   23172   23181   23193   23202       1   23160   23172   23157   23175       1
   23160   23172   23181   23190       1   23160   23172   23181   23193       1
   23157   23172   23181   23190       1   23157   23172   23181   23193       1
   23157   23175  -23184   23190       1   23151   23136   23157   23172       1
   23151   23136   23157   23175       1   23139   23121   23136   23151       1
   23139   23121   23136   23157       1   23139   23160  -23172   23157       1
   23139   23160   23172   23181       1   23136   23121   23139   23160       1
   23136   23157  -23172   23160       1   23136   23157   23172   23181       1
   23136   23157   23175   23184       1   23133   23118   23130   23142       1
   23133   23151   23136   23157       1   23130   23118   23133   23151       1
   23121   23112   23115   23124       1   23121   23112   23118   23130       1
   23121   23112   23118   23133       1   23121   23136  -23151   23133       1
   23121   23136   23157   23172       1   23121   23136   23157   23175       1
   23121   23139  -23160   23172       1   23118   23112   23115   23124       1
   23118   23112   23121   23136       1   23118   23112   23121   23139       1
   23118   23130  -23142   23124       1   23118   23133  -23151   23136       1
   23115   23112   23118   23130       1   23115   23112   23118   23133       1
   23115   23112   23121   23136       1   23115   23112   23121   23139       1
   23115   23124  -23142   23130       1   23112   23115   23124   23142       1
   23112   23118  -23130   23142       1   23112   23118   23133   23151       1
   23112   23121  -23136   23151       1   23112   23121   23136   23157       1
   23112   23121   23139   23160       1   23301   23289   23298   23307       1
   23301   23310  -23316   23307       1   23298   23289   23301   23310       1
   23298   23307  -23316   23310       1   23292   23298   23289   23301       1
   23292   23298   23307   23316       1   23289   23298   23307   23316       1
   23289   23301  -23310   23316       1   23283   23265   23280   23289       1
   23283   23292  -23298   23289       1   23283   23292   23298   23307       1
   23280   23265   23283   23292       1   23280   23289  -23298   23292       1
   23280   23289   23298   23307       1   23280   23289   23301   23310       1
   23268   23280   23265   23283       1   23268   23280   23289   23298       1
   23268   23280   23289   23301       1   23265   23280   23289   23298       1
   23265   23280   23289   23301       1   23265   23283  -23292   23298       1
   23259   23244   23265   23280       1   23259   23244   23265   23283       1
   23247   23229   23244   23259       1   23247   23229   23244   23265       1
   23247   23268  -23280   23265       1   23247   23268   23280   23289       1
   23244   23229   23247   23268       1   23244   23265  -23280   23268       1
   23244   23265   23280   23289       1   23244   23265   23283   23292       1
   23241   23226   23238   23250       1   23241   23259   23244   23265       1
   23238   23226   23241   23259       1   23229   23220   23223   23232       1
   23229   23220   23226   23238       1   23229   23220   23226   23241       1
   23229   23244  -23259   23241       1   23229   23244   23265   23280       1
   23229   23244   23265   23283       1   23229   23247  -23268   23280       1
   23226   23220   23223   23232       1   23226   23220   23229   23244       1
   23226   23220   23229   23247       1   23226   23238  -23250   23232       1
   23226   23241  -23259   23244       1   23223   23220   23226   23238       1
   23223   23220   23226   23241       1   23223   23220   23229   23244       1
   23223   23220   23229   23247       1   23223   23232  -23250   23238       1
   23220   23223   23232   23250       1   23220   23226  -23238   23250       1
   23220   23226   23241   23259       1   23220   23229  -23244   23259       1
   23220   23229   23244   23265       1   23220   23229   23247   23268       1
   23409   23397   23406   23415       1   23409   23418  -23424   23415       1
   23406   23397   23409   23418       1   23406   23415  -23424   23418       1
   23400   23406   23397   23409       1   23400   23406   23415   23424       1
   23397   23406   23415   23424       1   23397   23409  -23418   23424       1
   23391   23373   23388   23397       1   23391   23400  -23406   23397       1
   23391   23400   23406   23415       1   23388   23373   23391   23400       1
   23388   23397  -23406   23400       1   23388   23397   23406   23415       1
   23388   23397   23409   23418       1   23376   23388   23373   23391       1
   23376   23388   23397   23406       1   23376   23388   23397   23409       1
   23373   23388   23397   23406       1   23373   23388   23397   23409       1
   23373   23391  -23400   23406       1   23367   23352   23373   23388       1
   23367   23352   23373   23391       1   23355   23337   23352   23367       1
   23355   23337   23352   23373       1   23355   23376  -23388   23373       1
   23355   23376   23388   23397       1   23352   23337   23355   23376       1
   23352   23373  -23388   23376       1   23352   23373   23388   23397       1
   23352   23373   23391   23400       1   23349   23334   23346   23358       1
   23349   23367   23352   23373       1   23346   23334   23349   23367       1
   23337   23328   23331   23340       1   23337   23328   23334   23346       1
   23337   23328   23334   23349       1   23337   23352  -23367   23349       1
   23337   23352   23373   23388       1   23337   23352   23373   23391       1
   23337   23355  -23376   23388       1   23334   23328   23331   23340       1
   23334   23328   23337   23352       1   23334   23328   23337   23355       1
   23334   23346  -23358   23340       1   23334   23349  -23367   23352       1
   23331   23328   23334   23346       1   23331   23328   23334   23349       1
   23331   23328   23337   23352       1   23331   23328   23337   23355       1
   23331   23340  -23358   23346       1   23328   23331   23340   23358       1
   23328   23334  -23346   23358       1   23328   23334   23349   23367       1
   23328   23337  -23352   23367       1   23328   23337   23352   23373       1
   23328   23337   23355   23376       1   23517   23505   23514   23523       1
   23517   23526  -23532   23523       1   23514   23505   23517   23526       1
   23514   23523  -23532   23526       1   23508   23514   23505   23517       1
   23508   23514   23523   23532       1   23505   23514   23523   23532       1
   23505   23517  -23526   23532       1   23499   23481   23496   23505       1
   23499   23508  -23514   23505       1   23499   23508   23514   23523       1
   23496   23481   23499   23508       1   23496   23505  -23514   23508       1
   23496   23505   23514   23523       1   23496   23505   23517   23526       1
   23484   23496   23481   23499       1   23484   23496   23505   23514       1
   23484   23496   23505   23517       1   23481   23496   23505   23514       1
   23481   23496   23505   23517       1   23481   23499  -23508   23514       1
   23475   23460   23481   23496       1   23475   23460   23481   23499       1
   23463   23445   23460   23475       1   23463   23445   23460   23481       1
   23463   23484  -23496   23481       1   23463   23484   23496   23505       1
   23460   23445   23463   23484       1   23460   23481  -23496   23484       1
   23460   23481   23496   23505       1   23460   23481   23499   23508       1
   23457   23442   23454   23466       1   23457   23475   23460   23481       1
   23454   23442   23457   23475       1   23445   23436   23439   23448       1
   23445   23436   23442   23454       1   23445   23436   23442   23457       1
   23445   23460  -23475   23457       1   23445   23460   23481   23496       1
   23445   23460   23481   23499       1   23445   23463  -23484   23496       1
   23442   23436   23439   23448       1   23442   23436   23445   23460       1
   23442   23436   23445   23463       1   23442   23454  -23466   23448       1
   23442   23457  -23475   23460       1   23439   23436   23442   23454       1
   23439   23436   23442   23457       1   23439   23436   23445   23460       1
   23439   23436   23445   23463       1   23439   23448  -23466   23454       1
   23436   23439   23448   23466       1   23436   23442  -23454   23466       1
   23436   23442   23457   23475       1   23436   23445  -23460   23475       1
   23436   23445   23460   23481       1   23436   23445   23463   23484       1
   23625   23613   23622   23631       1   23625   23634  -23640   23631       1
   23622   23613   23625   23634       1   23622   23631  -23640   23634       1
   23616   23622   23613   23625       1   23616   23622   23631   23640       1
   23613   23622   23631   23640       1   23613   23625  -23634   23640       1
   23607   23589   23604   23613       1   23607   23616  -23622   23613       1
   23607   23616   23622   23631       1   23604   23589   23607   23616       1
   23604   23613  -23622   23616       1   23604   23613   23622   23631       1
   23604   23613   23625   23634       1   23592   23604   23589   23607       1
   23592   23604   23613   23622       1   23592   23604   23613   23625       1
   23589   23604   23613   23622       1   23589   23604   23613   23625       1
   23589   23607  -23616   23622       1   23583   23568   23589   23604       1
   23583   23568   23589   23607       1   23571   23553   23568   23583       1
   23571   23553   23568   23589       1   23571   23592  -23604   23589       1
   23571   23592   23604   23613       1   23568   23553   23571   23592       1
   23568   23589  -23604   23592       1   23568   23589   23604   23613       1
   23568   23589   23607   23616       1   23565   23550   23562   23574       1
   23565   23583   23568   23589       1   23562   23550   23565   23583       1
   23553   23544   23547   23556       1   23553   23544   23550   23562       1
   23553   23544   23550   23565       1   23553   23568  -23583   23565       1
   23553   23568   23589   23604       1   23553   23568   23589   23607       1
   23553   23571  -23592   23604       1   23550   23544   23547   23556       1
   23550   23544   23553   23568       1   23550   23544   23553   23571       1
   23550   23562  -23574   23556       1   23550   23565  -23583   23568       1
   23547   23544   23550   23562       1   23547   23544   23550   23565       1
   23547   23544   23553   23568       1   23547   23544   23553   23571       1
   23547   23556  -23574   23562       1   23544   23547   23556   23574       1
   23544   23550  -23562   23574       1   23544   23550   23565   23583       1
   23544   23553  -23568   23583       1   23544   23553   23568   23589       1
   23544   23553   23571   23592       1   23733   23721   23730   23739       1
   23733   23742  -23748   23739       1   23730   23721   23733   23742       1
   23730   23739  -23748   23742       1   23724   23730   23721   23733       1
   23724   23730   23739   23748       1   23721   23730   23739   23748       1
   23721   23733  -23742   23748       1   23715   23697   23712   23721       1
   23715   23724  -23730   23721       1   23715   23724   23730   23739       1
   23712   23697   23715   23724       1   23712   23721  -23730   23724       1
   23712   23721   23730   23739       1   23712   23721   23733   23742       1
   23700   23712   23697   23715       1   23700   23712   23721   23730       1
   23700   23712   23721   23733       1   23697   23712   23721   23730       1
   23697   23712   23721   23733       1   23697   23715  -23724   23730       1
   23691   23676   23697   23712       1   23691   23676   23697   23715       1
   23679   23661   23676   23691       1   23679   23661   23676   23697       1
   23679   23700  -23712   23697       1   23679   23700   23712   23721       1
   23676   23661   23679   23700       1   23676   23697  -23712   23700       1
   23676   23697   23712   23721       1   23676   23697   23715   23724       1
   23673   23658   23670   23682       1   23673   23691   23676   23697       1
   23670   23658   23673   23691       1   23661   23652   23655   23664       1
   23661   23652   23658   23670       1   23661   23652   23658   23673       1
   23661   23676  -23691   23673       1   23661   23676   23697   23712       1
   23661   23676   23697   23715       1   23661   23679  -23700   23712       1
   23658   23652   23655   23664       1   23658   23652   23661   23676       1
   23658   23652   23661   23679       1   23658   23670  -23682   23664       1
   23658   23673  -23691   23676       1   23655   23652   23658   23670       1
   23655   23652   23658   23673       1   23655   23652   23661   23676       1
   23655   23652   23661   23679       1   23655   23664  -23682   23670       1
   23652   23655   23664   23682       1   23652   23658  -23670   23682       1
   23652   23658   23673   23691       1   23652   23661  -23676   23691       1
   23652   23661   23676   23697       1   23652   23661   23679   23700       1
   23841   23829   23838   23847       1   23841   23850  -23856   23847       1
   23838   23829   23841   23850       1   23838   23847  -23856   23850       1
   23832   23838   23829   23841       1   23832   23838   23847   23856       1
   23829   23838   23847   23856       1   23829   23841  -23850   23856       1
   23823   23805   23820   23829       1   23823   23832  -23838   23829       1
   23823   23832   23838   23847       1   23820   23805   23823   23832       1
   23820   23829  -23838   23832       1   23820   23829   23838   23847       1
   23820   23829   23841   23850       1   23808   23820   23805   23823       1
   23808   23820   23829   23838       1   23808   23820   23829   23841       1
   23805   23820   23829   23838       1   23805   23820   23829   23841       1
   23805   23823  -23832   23838       1   23799   23784   23805   23820       1
   23799   23784   23805   23823       1   23787   23769   23784   23799       1
   23787   23769   23784   23805       1   23787   23808  -23820   23805       1
   23787   23808   23820   23829       1   23784   23769   23787   23808       1
   23784   23805  -23820   23808       1   23784   23805   23820   23829       1
   23784   23805   23823   23832       1   23781   23766   23778   23790       1
   23781   23799   23784   23805       1   23778   23766   23781   23799       1
   23769   23760   23763   23772       1   23769   23760   23766   23778       1
   23769   23760   23766   23781       1   23769   23784  -23799   23781       1
   23769   23784   23805   23820       1   23769   23784   23805   23823       1
   23769   23787  -23808   23820       1   23766   23760   23763   23772       1
   23766   23760   23769   23784       1   23766   23760   23769   23787       1
   23766   23778  -23790   23772       1   23766   23781  -23799   23784       1
   23763   23760   23766   23778       1   23763   23760   23766   23781       1
   23763   23760   23769   23784       1   23763   23760   23769   23787       1
   23763   23772  -23790   23778       1   23760   23763   23772   23790       1
   23760   23766  -23778   23790       1   23760   23766   23781   23799       1
   23760   23769  -23784   23799       1   23760   23769   23784   23805       1
   23760   23769   23787   23808       1   23949   23937   23946   23955       1
   23949   23958  -23964   23955       1   23946   23937   23949   23958       1
   23946   23955  -23964   23958       1   23940   23946   23937   23949       1
   23940   23946   23955   23964       1   23937   23946   23955   23964       1
   23937   23949  -23958   23964       1   23931   23913   23928   23937       1
   23931   23940  -23946   23937       1   23931   23940   23946   23955       1
   23928   23913   23931   23940       1   23928   23937  -23946   23940       1
   23928   23937   23946   23955       1   23928   23937   23949   23958       1
   23916   23928   23913   23931       1   23916   23928   23937   23946       1
   23916   23928   23937   23949       1   23913   23928   23937   23946       1
   23913   23928   23937   23949       1   23913   23931  -23940   23946       1
   23907   23892   23913   23928       1   23907   23892   23913   23931       1
   23895   23877   23892   23907       1   23895   23877   23892   23913       1
   23895   23916  -23928   23913       1   23895   23916   23928   23937       1
   23892   23877   23895   23916       1   23892   23913  -23928   23916       1
   23892   23913   23928   23937       1   23892   23913   23931   23940       1
   23889   23874   23886   23898       1   23889   23907   23892   23913       1
   23886   23874   23889   23907       1   23877   23868   23871   23880       1
   23877   23868   23874   23886       1   23877   23868   23874   23889       1
   23877   23892  -23907   23889       1   23877   23892   23913   23928       1
   23877   23892   23913   23931       1   23877   23895  -23916   23928       1
   23874   23868   23871   23880       1   23874   23868   23877   23892       1
   23874   23868   23877   23895       1   23874   23886  -23898   23880       1
   23874   23889  -23907   23892       1   23871   23868   23874   23886       1
   23871   23868   23874   23889       1   23871   23868   23877   23892       1
   23871   23868   23877   23895       1   23871   23880  -23898   23886       1
   23868   23871   23880   23898       1   23868   23874  -23886   23898       1
   23868   23874   23889   23907       1   23868   23877  -23892   23907       1
   23868   23877   23892   23913       1   23868   23877   23895   23916       1
   24057   24045   24054   24063       1   24057   24066  -24072   24063       1
   24054   24045   24057   24066       1   24054   24063  -24072   24066       1
   24048   24054   24045   24057       1   24048   24054   24063   24072       1
   24045   24054   24063   24072       1   24045   24057  -24066   24072       1
   24039   24021   24036   24045       1   24039   24048  -24054   24045       1
   24039   24048   24054   24063       1   24036   24021   24039   24048       1
   24036   24045  -24054   24048       1   24036   24045   24054   24063       1
   24036   24045   24057   24066       1   24024   24036   24021   24039       1
   24024   24036   24045   24054       1   24024   24036   24045   24057       1
   24021   24036   24045   24054       1   24021   24036   24045   24057       1
   24021   24039  -24048   24054       1   24015   24000   24021   24036       1
   24015   24000   24021   24039       1   24003   23985   24000   24015       1
   24003   23985   24000   24021       1   24003   24024  -24036   24021       1
   24003   24024   24036   24045       1   24000   23985   24003   24024       1
   24000   24021  -24036   24024       1   24000   24021   24036   24045       1
   24000   24021   24039   24048       1   23997   23982   23994   24006       1
   23997   24015   24000   24021       1   23994   23982   23997   24015       1
   23985   23976   23979   23988       1   23985   23976   23982   23994       1
   23985   23976   23982   23997       1   23985   24000  -24015   23997       1
   23985   24000   24021   24036       1   23985   24000   24021   24039       1
   23985   24003  -24024   24036       1   23982   23976   23979   23988       1
   23982   23976   23985   24000       1   23982   23976   23985   24003       1
   23982   23994  -24006   23988       1   23982   23997  -24015   24000       1
   23979   23976   23982   23994       1   23979   23976   23982   23997       1
   23979   23976   23985   24000       1   23979   23976   23985   24003       1
   23979   23988  -24006   23994       1   23976   23979   23988   24006       1
   23976   23982  -23994   24006       1   23976   23982   23997   24015       1
   23976   23985  -24000   24015       1   23976   23985   24000   24021       1
   23976   23985   24003   24024       1   24165   24153   24162   24171       1
   24165   24174  -24180   24171       1   24162   24153   24165   24174       1
   24162   24171  -24180   24174       1   24156   24162   24153   24165       1
   24156   24162   24171   24180       1   24153   24162   24171   24180       1
   24153   24165  -24174   24180       1   24147   24129   24144   24153       1
   24147   24156  -24162   24153       1   24147   24156   24162   24171       1
   24144   24129   24147   24156       1   24144   24153  -24162   24156       1
   24144   24153   24162   24171       1   24144   24153   24165   24174       1
   24132   24144   24129   24147       1   24132   24144   24153   24162       1
   24132   24144   24153   24165       1   24129   24144   24153   24162       1
   24129   24144   24153   24165       1   24129   24147  -24156   24162       1
   24123   24108   24129   24144       1   24123   24108   24129   24147       1
   24111   24093   24108   24123       1   24111   24093   24108   24129       1
   24111   24132  -24144   24129       1   24111   24132   24144   24153       1
   24108   24093   24111   24132       1   24108   24129  -24144   24132       1
   24108   24129   24144   24153       1   24108   24129   24147   24156       1
   24105   24090   24102   24114       1   24105   24123   24108   24129       1
   24102   24090   24105   24123       1   24093   24084   24087   24096       1
   24093   24084   24090   24102       1   24093   24084   24090   24105       1
   24093   24108  -24123   24105       1   24093   24108   24129   24144       1
   24093   24108   24129   24147       1   24093   24111  -24132   24144       1
   24090   24084   24087   24096       1   24090   24084   24093   24108       1
   24090   24084   24093   24111       1   24090   24102  -24114   24096       1
   24090   24105  -24123   24108       1   24087   24084   24090   24102       1
   24087   24084   24090   24105       1   24087   24084   24093   24108       1
   24087   24084   24093   24111       1   24087   24096  -24114   24102       1
   24084   24087   24096   24114       1   24084   24090  -24102   24114       1
   24084   24090   24105   24123       1   24084   24093  -24108   24123       1
   24084   24093   24108   24129       1   24084   24093   24111   24132       1
   24273   24261   24270   24279       1   24273   24282  -24288   24279       1
   24270   24261   24273   24282       1   24270   24279  -24288   24282       1
   24264   24270   24261   24273       1   24264   24270   24279   24288       1
   24261   24270   24279   24288       1   24261   24273  -24282   24288       1
   24255   24237   24252   24261       1   24255   24264  -24270   24261       1
   24255   24264   24270   24279       1   24252   24237   24255   24264       1
   24252   24261  -24270   24264       1   24252   24261   24270   24279       1
   24252   24261   24273   24282       1   24240   24252   24237   24255       1
   24240   24252   24261   24270       1   24240   24252   24261   24273       1
   24237   24252   24261   24270       1   24237   24252   24261   24273       1
   24237   24255  -24264   24270       1   24231   24216   24237   24252       1
   24231   24216   24237   24255       1   24219   24201   24216   24231       1
   24219   24201   24216   24237       1   24219   24240  -24252   24237       1
   24219   24240   24252   24261       1   24216   24201   24219   24240       1
   24216   24237  -24252   24240       1   24216   24237   24252   24261       1
   24216   24237   24255   24264       1   24213   24198   24210   24222       1
   24213   24231   24216   24237       1   24210   24198   24213   24231       1
   24201   24192   24195   24204       1   24201   24192   24198   24210       1
   24201   24192   24198   24213       1   24201   24216  -24231   24213       1
   24201   24216   24237   24252       1   24201   24216   24237   24255       1
   24201   24219  -24240   24252       1   24198   24192   24195   24204       1
   24198   24192   24201   24216       1   24198   24192   24201   24219       1
   24198   24210  -24222   24204       1   24198   24213  -24231   24216       1
   24195   24192   24198   24210       1   24195   24192   24198   24213       1
   24195   24192   24201   24216       1   24195   24192   24201   24219       1
   24195   24204  -24222   24210       1   24192   24195   24204   24222       1
   24192   24198  -24210   24222       1   24192   24198   24213   24231       1
   24192   24201  -24216   24231       1   24192   24201   24216   24237       1
   24192   24201   24219   24240       1   24381   24369   24378   24387       1
   24381   24390  -24396   24387       1   24378   24369   24381   24390       1
   24378   24387  -24396   24390       1   24372   24378   24369   24381       1
   24372   24378   24387   24396       1   24369   24378   24387   24396       1
   24369   24381  -24390   24396       1   24363   24345   24360   24369       1
   24363   24372  -24378   24369       1   24363   24372   24378   24387       1
   24360   24345   24363   24372       1   24360   24369  -24378   24372       1
   24360   24369   24378   24387       1   24360   24369   24381   24390       1
   24348   24360   24345   24363       1   24348   24360   24369   24378       1
   24348   24360   24369   24381       1   24345   24360   24369   24378       1
   24345   24360   24369   24381       1   24345   24363  -24372   24378       1
   24339   24324   24345   24360       1   24339   24324   24345   24363       1
   24327   24309   24324   24339       1   24327   24309   24324   24345       1
   24327   24348  -24360   24345       1   24327   24348   24360   24369       1
   24324   24309   24327   24348       1   24324   24345  -24360   24348       1
   24324   24345   24360   24369       1   24324   24345   24363   24372       1
   24321   24306   24318   24330       1   24321   24339   24324   24345       1
   24318   24306   24321   24339       1   24309   24300   24303   24312       1
   24309   24300   24306   24318       1   24309   24300   24306   24321       1
   24309   24324  -24339   24321       1   24309   24324   24345   24360       1
   24309   24324   24345   24363       1   24309   24327  -24348   24360       1
   24306   24300   24303   24312       1   24306   24300   24309   24324       1
   24306   24300   24309   24327       1   24306   24318  -24330   24312       1
   24306   24321  -24339   24324       1   24303   24300   24306   24318       1
   24303   24300   24306   24321       1   24303   24300   24309   24324       1
   24303   24300   24309   24327       1   24303   24312  -24330   24318       1
   24300   24303   24312   24330       1   24300   24306  -24318   24330       1
   24300   24306   24321   24339       1   24300   24309  -24324   24339       1
   24300   24309   24324   24345       1   24300   24309   24327   24348       1
   24489   24477   24486   24495       1   24489   24498  -24504   24495       1
   24486   24477   24489   24498       1   24486   24495  -24504   24498       1
   24480   24486   24477   24489       1   24480   24486   24495   24504       1
   24477   24486   24495   24504       1   24477   24489  -24498   24504       1
   24471   24453   24468   24477       1   24471   24480  -24486   24477       1
   24471   24480   24486   24495       1   24468   24453   24471   24480       1
   24468   24477  -24486   24480       1   24468   24477   24486   24495       1
   24468   24477   24489   24498       1   24456   24468   24453   24471       1
   24456   24468   24477   24486       1   24456   24468   24477   24489       1
   24453   24468   24477   24486       1   24453   24468   24477   24489       1
   24453   24471  -24480   24486       1   24447   24432   24453   24468       1
   24447   24432   24453   24471       1   24435   24417   24432   24447       1
   24435   24417   24432   24453       1   24435   24456  -24468   24453       1
   24435   24456   24468   24477       1   24432   24417   24435   24456       1
   24432   24453  -24468   24456       1   24432   24453   24468   24477       1
   24432   24453   24471   24480       1   24429   24414   24426   24438       1
   24429   24447   24432   24453       1   24426   24414   24429   24447       1
   24417   24408   24411   24420       1   24417   24408   24414   24426       1
   24417   24408   24414   24429       1   24417   24432  -24447   24429       1
   24417   24432   24453   24468       1   24417   24432   24453   24471       1
   24417   24435  -24456   24468       1   24414   24408   24411   24420       1
   24414   24408   24417   24432       1   24414   24408   24417   24435       1
   24414   24426  -24438   24420       1   24414   24429  -24447   24432       1
   24411   24408   24414   24426       1   24411   24408   24414   24429       1
   24411   24408   24417   24432       1   24411   24408   24417   24435       1
   24411   24420  -24438   24426       1   24408   24411   24420   24438       1
   24408   24414  -24426   24438       1   24408   24414   24429   24447       1
   24408   24417  -24432   24447       1   24408   24417   24432   24453       1
   24408   24417   24435   24456       1   24597   24585   24594   24603       1
   24597   24606  -24612   24603       1   24594   24585   24597   24606       1
   24594   24603  -24612   24606       1   24588   24594   24585   24597       1
   24588   24594   24603   24612       1   24585   24594   24603   24612       1
   24585   24597  -24606   24612       1   24579   24561   24576   24585       1
   24579   24588  -24594   24585       1   24579   24588   24594   24603       1
   24576   24561   24579   24588       1   24576   24585  -24594   24588       1
   24576   24585   24594   24603       1   24576   24585   24597   24606       1
   24564   24576   24561   24579       1   24564   24576   24585   24594       1
   24564   24576   24585   24597       1   24561   24576   24585   24594       1
   24561   24576   24585   24597       1   24561   24579  -24588   24594       1
   24555   24540   24561   24576       1   24555   24540   24561   24579       1
   24543   24525   24540   24555       1   24543   24525   24540   24561       1
   24543   24564  -24576   24561       1   24543   24564   24576   24585       1
   24540   24525   24543   24564       1   24540   24561  -24576   24564       1
   24540   24561   24576   24585       1   24540   24561   24579   24588       1
   24537   24522   24534   24546       1   24537   24555   24540   24561       1
   24534   24522   24537   24555       1   24525   24516   24519   24528       1
   24525   24516   24522   24534       1   24525   24516   24522   24537       1
   24525   24540  -24555   24537       1   24525   24540   24561   24576       1
   24525   24540   24561   24579       1   24525   24543  -24564   24576       1
   24522   24516   24519   24528       1   24522   24516   24525   24540       1
   24522   24516   24525   24543       1   24522   24534  -24546   24528       1
   24522   24537  -24555   24540       1   24519   24516   24522   24534       1
   24519   24516   24522   24537       1   24519   24516   24525   24540       1
   24519   24516   24525   24543       1   24519   24528  -24546   24534       1
   24516   24519   24528   24546       1   24516   24522  -24534   24546       1
   24516   24522   24537   24555       1   24516   24525  -24540   24555       1
   24516   24525   24540   24561       1   24516   24525   24543   24564       1
   24705   24693   24702   24711       1   24705   24714  -24720   24711       1
   24702   24693   24705   24714       1   24702   24711  -24720   24714       1
   24696   24702   24693   24705       1   24696   24702   24711   24720       1
   24693   24702   24711   24720       1   24693   24705  -24714   24720       1
   24687   24669   24684   24693       1   24687   24696  -24702   24693       1
   24687   24696   24702   24711       1   24684   24669   24687   24696       1
   24684   24693  -24702   24696       1   24684   24693   24702   24711       1
   24684   24693   24705   24714       1   24672   24684   24669   24687       1
   24672   24684   24693   24702       1   24672   24684   24693   24705       1
   24669   24684   24693   24702       1   24669   24684   24693   24705       1
   24669   24687  -24696   24702       1   24663   24648   24669   24684       1
   24663   24648   24669   24687       1   24651   24633   24648   24663       1
   24651   24633   24648   24669       1   24651   24672  -24684   24669       1
   24651   24672   24684   24693       1   24648   24633   24651   24672       1
   24648   24669  -24684   24672       1   24648   24669   24684   24693       1
   24648   24669   24687   24696       1   24645   24630   24642   24654       1
   24645   24663   24648   24669       1   24642   24630   24645   24663       1
   24633   24624   24627   24636       1   24633   24624   24630   24642       1
   24633   24624   24630   24645       1   24633   24648  -24663   24645       1
   24633   24648   24669   24684       1   24633   24648   24669   24687       1
   24633   24651  -24672   24684       1   24630   24624   24627   24636       1
   24630   24624   24633   24648       1   24630   24624   24633   24651       1
   24630   24642  -24654   24636       1   24630   24645  -24663   24648       1
   24627   24624   24630   24642       1   24627   24624   24630   24645       1
   24627   24624   24633   24648       1   24627   24624   24633   24651       1
   24627   24636  -24654   24642       1   24624   24627   24636   24654       1
   24624   24630  -24642   24654       1   24624   24630   24645   24663       1
   24624   24633  -24648   24663       1   24624   24633   24648   24669       1
   24624   24633   24651   24672       1   24813   24801   24810   24819       1
   24813   24822  -24828   24819       1   24810   24801   24813   24822       1
   24810   24819  -24828   24822       1   24804   24810   24801   24813       1
   24804   24810   24819   24828       1   24801   24810   24819   24828       1
   24801   24813  -24822   24828       1   24795   24777   24792   24801       1
   24795   24804  -24810   24801       1   24795   24804   24810   24819       1
   24792   24777   24795   24804       1   24792   24801  -24810   24804       1
   24792   24801   24810   24819       1   24792   24801   24813   24822       1
   24780   24792   24777   24795       1   24780   24792   24801   24810       1
   24780   24792   24801   24813       1   24777   24792   24801   24810       1
   24777   24792   24801   24813       1   24777   24795  -24804   24810       1
   24771   24756   24777   24792       1   24771   24756   24777   24795       1
   24759   24741   24756   24771       1   24759   24741   24756   24777       1
   24759   24780  -24792   24777       1   24759   24780   24792   24801       1
   24756   24741   24759   24780       1   24756   24777  -24792   24780       1
   24756   24777   24792   24801       1   24756   24777   24795   24804       1
   24753   24738   24750   24762       1   24753   24771   24756   24777       1
   24750   24738   24753   24771       1   24741   24732   24735   24744       1
   24741   24732   24738   24750       1   24741   24732   24738   24753       1
   24741   24756  -24771   24753       1   24741   24756   24777   24792       1
   24741   24756   24777   24795       1   24741   24759  -24780   24792       1
   24738   24732   24735   24744       1   24738   24732   24741   24756       1
   24738   24732   24741   24759       1   24738   24750  -24762   24744       1
   24738   24753  -24771   24756       1   24735   24732   24738   24750       1
   24735   24732   24738   24753       1   24735   24732   24741   24756       1
   24735   24732   24741   24759       1   24735   24744  -24762   24750       1
   24732   24735   24744   24762       1   24732   24738  -24750   24762       1
   24732   24738   24753   24771       1   24732   24741  -24756   24771       1
   24732   24741   24756   24777       1   24732   24741   24759   24780       1
   24921   24909   24918   24927       1   24921   24930  -24936   24927       1
   24918   24909   24921   24930       1   24918   24927  -24936   24930       1
   24912   24918   24909   24921       1   24912   24918   24927   24936       1
   24909   24918   24927   24936       1   24909   24921  -24930   24936       1
   24903   24885   24900   24909       1   24903   24912  -24918   24909       1
   24903   24912   24918   24927       1   24900   24885   24903   24912       1
   24900   24909  -24918   24912       1   24900   24909   24918   24927       1
   24900   24909   24921   24930       1   24888   24900   24885   24903       1
   24888   24900   24909   24918       1   24888   24900   24909   24921       1
   24885   24900   24909   24918       1   24885   24900   24909   24921       1
   24885   24903  -24912   24918       1   24879   24864   24885   24900       1
   24879   24864   24885   24903       1   24867   24849   24864   24879       1
   24867   24849   24864   24885       1   24867   24888  -24900   24885       1
   24867   24888   24900   24909       1   24864   24849   24867   24888       1
   24864   24885  -24900   24888       1   24864   24885   24900   24909       1
   24864   24885   24903   24912       1   24861   24846   24858   24870       1
   24861   24879   24864   24885       1   24858   24846   24861   24879       1
   24849   24840   24843   24852       1   24849   24840   24846   24858       1
   24849   24840   24846   24861       1   24849   24864  -24879   24861       1
   24849   24864   24885   24900       1   24849   24864   24885   24903       1
   24849   24867  -24888   24900       1   24846   24840   24843   24852       1
   24846   24840   24849   24864       1   24846   24840   24849   24867       1
   24846   24858  -24870   24852       1   24846   24861  -24879   24864       1
   24843   24840   24846   24858       1   24843   24840   24846   24861       1
   24843   24840   24849   24864       1   24843   24840   24849   24867       1
   24843   24852  -24870   24858       1   24840   24843   24852   24870       1
   24840   24846  -24858   24870       1   24840   24846   24861   24879       1
   24840   24849  -24864   24879       1   24840   24849   24864   24885       1
   24840   24849   24867   24888       1   25029   25017   25026   25035       1
   25029   25038  -25044   25035       1   25026   25017   25029   25038       1
   25026   25035  -25044   25038       1   25020   25026   25017   25029       1
   25020   25026   25035   25044       1   25017   25026   25035   25044       1
   25017   25029  -25038   25044       1   25011   24993   25008   25017       1
   25011   25020  -25026   25017       1   25011   25020   25026   25035       1
   25008   24993   25011   25020       1   25008   25017  -25026   25020       1
   25008   25017   25026   25035       1   25008   25017   25029   25038       1
   24996   25008   24993   25011       1   24996   25008   25017   25026       1
   24996   25008   25017   25029       1   24993   25008   25017   25026       1
   24993   25008   25017   25029       1   24993   25011  -25020   25026       1
   24987   24972   24993   25008       1   24987   24972   24993   25011       1
   24975   24957   24972   24987       1   24975   24957   24972   24993       1
   24975   24996  -25008   24993       1   24975   24996   25008   25017       1
   24972   24957   24975   24996       1   24972   24993  -25008   24996       1
   24972   24993   25008   25017       1   24972   24993   25011   25020       1
   24969   24954   24966   24978       1   24969   24987   24972   24993       1
   24966   24954   24969   24987       1   24957   24948   24951   24960       1
   24957   24948   24954   24966       1   24957   24948   24954   24969       1
   24957   24972  -24987   24969       1   24957   24972   24993   25008       1
   24957   24972   24993   25011       1   24957   24975  -24996   25008       1
   24954   24948   24951   24960       1   24954   24948   24957   24972       1
   24954   24948   24957   24975       1   24954   24966  -24978   24960       1
   24954   24969  -24987   24972       1   24951   24948   24954   24966       1
   24951   24948   24954   24969       1   24951   24948   24957   24972       1
   24951   24948   24957   24975       1   24951   24960  -24978   24966       1
   24948   24951   24960   24978       1   24948   24954  -24966   24978       1
   24948   24954   24969   24987       1   24948   24957  -24972   24987       1
   24948   24957   24972   24993       1   24948   24957   24975   24996       1
   25137   25125   25134   25143       1   25137   25146  -25152   25143       1
   25134   25125   25137   25146       1   25134   25143  -25152   25146       1
   25128   25134   25125   25137       1   25128   25134   25143   25152       1
   25125   25134   25143   25152       1   25125   25137  -25146   25152       1
   25119   25101   25116   25125       1   25119   25128  -25134   25125       1
   25119   25128   25134   25143       1   25116   25101   25119   25128       1
   25116   25125  -25134   25128       1   25116   25125   25134   25143       1
   25116   25125   25137   25146       1   25104   25116   25101   25119       1
   25104   25116   25125   25134       1   25104   25116   25125   25137       1
   25101   25116   25125   25134       1   25101   25116   25125   25137       1
   25101   25119  -25128   25134       1   25095   25080   25101   25116       1
   25095   25080   25101   25119       1   25083   25065   25080   25095       1
   25083   25065   25080   25101       1   25083   25104  -25116   25101       1
   25083   25104   25116   25125       1   25080   25065   25083   25104       1
   25080   25101  -25116   25104       1   25080   25101   25116   25125       1
   25080   25101   25119   25128       1   25077   25062   25074   25086       1
   25077   25095   25080   25101       1   25074   25062   25077   25095       1
   25065   25056   25059   25068       1   25065   25056   25062   25074       1
   25065   25056   25062   25077       1   25065   25080  -25095   25077       1
   25065   25080   25101   25116       1   25065   25080   25101   25119       1
   25065   25083  -25104   25116       1   25062   25056   25059   25068       1
   25062   25056   25065   25080       1   25062   25056   25065   25083       1
   25062   25074  -25086   25068       1   25062   25077  -25095   25080       1
   25059   25056   25062   25074       1   25059   25056   25062   25077       1
   25059   25056   25065   25080       1   25059   25056   25065   25083       1
   25059   25068  -25086   25074       1   25056   25059   25068   25086       1
   25056   25062  -25074   25086       1   25056   25062   25077   25095       1
   25056   25065  -25080   25095       1   25056   25065   25080   25101       1
   25056   25065   25083   25104       1   25245   25233   25242   25251       1
   25245   25254  -25260   25251       1   25242   25233   25245   25254       1
   25242   25251  -25260   25254       1   25236   25242   25233   25245       1
   25236   25242   25251   25260       1   25233   25242   25251   25260       1
   25233   25245  -25254   25260       1   25227   25209   25224   25233       1
   25227   25236  -25242   25233       1   25227   25236   25242   25251       1
   25224   25209   25227   25236       1   25224   25233  -25242   25236       1
   25224   25233   25242   25251       1   25224   25233   25245   25254       1
   25212   25224   25209   25227       1   25212   25224   25233   25242       1
   25212   25224   25233   25245       1   25209   25224   25233   25242       1
   25209   25224   25233   25245       1   25209   25227  -25236   25242       1
   25203   25188   25209   25224       1   25203   25188   25209   25227       1
   25191   25173   25188   25203       1   25191   25173   25188   25209       1
   25191   25212  -25224   25209       1   25191   25212   25224   25233       1
   25188   25173   25191   25212       1   25188   25209  -25224   25212       1
   25188   25209   25224   25233       1   25188   25209   25227   25236       1
   25185   25170   25182   25194       1   25185   25203   25188   25209       1
   25182   25170   25185   25203       1   25173   25164   25167   25176       1
   25173   25164   25170   25182       1   25173   25164   25170   25185       1
   25173   25188  -25203   25185       1   25173   25188   25209   25224       1
   25173   25188   25209   25227       1   25173   25191  -25212   25224       1
   25170   25164   25167   25176       1   25170   25164   25173   25188       1
   25170   25164   25173   25191       1   25170   25182  -25194   25176       1
   25170   25185  -25203   25188       1   25167   25164   25170   25182       1
   25167   25164   25170   25185       1   25167   25164   25173   25188       1
   25167   25164   25173   25191       1   25167   25176  -25194   25182       1
   25164   25167   25176   25194       1   25164   25170  -25182   25194       1
   25164   25170   25185   25203       1   25164   25173  -25188   25203       1
   25164   25173   25188   25209       1   25164   25173   25191   25212       1
   25353   25341   25350   25359       1   25353   25362  -25368   25359       1
   25350   25341   25353   25362       1   25350   25359  -25368   25362       1
   25344   25350   25341   25353       1   25344   25350   25359   25368       1
   25341   25350   25359   25368       1   25341   25353  -25362   25368       1
   25335   25317   25332   25341       1   25335   25344  -25350   25341       1
   25335   25344   25350   25359       1   25332   25317   25335   25344       1
   25332   25341  -25350   25344       1   25332   25341   25350   25359       1
   25332   25341   25353   25362       1   25320   25332   25317   25335       1
   25320   25332   25341   25350       1   25320   25332   25341   25353       1
   25317   25332   25341   25350       1   25317   25332   25341   25353       1
   25317   25335  -25344   25350       1   25311   25296   25317   25332       1
   25311   25296   25317   25335       1   25299   25281   25296   25311       1
   25299   25281   25296   25317       1   25299   25320  -25332   25317       1
   25299   25320   25332   25341       1   25296   25281   25299   25320       1
   25296   25317  -25332   25320       1   25296   25317   25332   25341       1
   25296   25317   25335   25344       1   25293   25278   25290   25302       1
   25293   25311   25296   25317       1   25290   25278   25293   25311       1
   25281   25272   25275   25284       1   25281   25272   25278   25290       1
   25281   25272   25278   25293       1   25281   25296  -25311   25293       1
   25281   25296   25317   25332       1   25281   25296   25317   25335       1
   25281   25299  -25320   25332       1   25278   25272   25275   25284       1
   25278   25272   25281   25296       1   25278   25272   25281   25299       1
   25278   25290  -25302   25284       1   25278   25293  -25311   25296       1
   25275   25272   25278   25290       1   25275   25272   25278   25293       1
   25275   25272   25281   25296       1   25275   25272   25281   25299       1
   25275   25284  -25302   25290       1   25272   25275   25284   25302       1
   25272   25278  -25290   25302       1   25272   25278   25293   25311       1
   25272   25281  -25296   25311       1   25272   25281   25296   25317       1
   25272   25281   25299   25320       1   25461   25449   25458   25467       1
   25461   25470  -25476   25467       1   25458   25449   25461   25470       1
   25458   25467  -25476   25470       1   25452   25458   25449   25461       1
   25452   25458   25467   25476       1   25449   25458   25467   25476       1
   25449   25461  -25470   25476       1   25443   25425   25440   25449       1
   25443   25452  -25458   25449       1   25443   25452   25458   25467       1
   25440   25425   25443   25452       1   25440   25449  -25458   25452       1
   25440   25449   25458   25467       1   25440   25449   25461   25470       1
   25428   25440   25425   25443       1   25428   25440   25449   25458       1
   25428   25440   25449   25461       1   25425   25440   25449   25458       1
   25425   25440   25449   25461       1   25425   25443  -25452   25458       1
   25419   25404   25425   25440       1   25419   25404   25425   25443       1
   25407   25389   25404   25419       1   25407   25389   25404   25425       1
   25407   25428  -25440   25425       1   25407   25428   25440   25449       1
   25404   25389   25407   25428       1   25404   25425  -25440   25428       1
   25404   25425   25440   25449       1   25404   25425   25443   25452       1
   25401   25386   25398   25410       1   25401   25419   25404   25425       1
   25398   25386   25401   25419       1   25389   25380   25383   25392       1
   25389   25380   25386   25398       1   25389   25380   25386   25401       1
   25389   25404  -25419   25401       1   25389   25404   25425   25440       1
   25389   25404   25425   25443       1   25389   25407  -25428   25440       1
   25386   25380   25383   25392       1   25386   25380   25389   25404       1
   25386   25380   25389   25407       1   25386   25398  -25410   25392       1
   25386   25401  -25419   25404       1   25383   25380   25386   25398       1
   25383   25380   25386   25401       1   25383   25380   25389   25404       1
   25383   25380   25389   25407       1   25383   25392  -25410   25398       1
   25380   25383   25392   25410       1   25380   25386  -25398   25410       1
   25380   25386   25401   25419       1   25380   25389  -25404   25419       1
   25380   25389   25404   25425       1   25380   25389   25407   25428       1
   25569   25557   25566   25575       1   25569   25578  -25584   25575       1
   25566   25557   25569   25578       1   25566   25575  -25584   25578       1
   25560   25566   25557   25569       1   25560   25566   25575   25584       1
   25557   25566   25575   25584       1   25557   25569  -25578   25584       1
   25551   25533   25548   25557       1   25551   25560  -25566   25557       1
   25551   25560   25566   25575       1   25548   25533   25551   25560       1
   25548   25557  -25566   25560       1   25548   25557   25566   25575       1
   25548   25557   25569   25578       1   25536   25548   25533   25551       1
   25536   25548   25557   25566       1   25536   25548   25557   25569       1
   25533   25548   25557   25566       1   25533   25548   25557   25569       1
   25533   25551  -25560   25566       1   25527   25512   25533   25548       1
   25527   25512   25533   25551       1   25515   25497   25512   25527       1
   25515   25497   25512   25533       1   25515   25536  -25548   25533       1
   25515   25536   25548   25557       1   25512   25497   25515   25536       1
   25512   25533  -25548   25536       1   25512   25533   25548   25557       1
   25512   25533   25551   25560       1   25509   25494   25506   25518       1
   25509   25527   25512   25533       1   25506   25494   25509   25527       1
   25497   25488   25491   25500       1   25497   25488   25494   25506       1
   25497   25488   25494   25509       1   25497   25512  -25527   25509       1
   25497   25512   25533   25548       1   25497   25512   25533   25551       1
   25497   25515  -25536   25548       1   25494   25488   25491   25500       1
   25494   25488   25497   25512       1   25494   25488   25497   25515       1
   25494   25506  -25518   25500       1   25494   25509  -25527   25512       1
   25491   25488   25494   25506       1   25491   25488   25494   25509       1
   25491   25488   25497   25512       1   25491   25488   25497   25515       1
   25491   25500  -25518   25506       1   25488   25491   25500   25518       1
   25488   25494  -25506   25518       1   25488   25494   25509   25527       1
   25488   25497  -25512   25527       1   25488   25497   25512   25533       1
   25488   25497   25515   25536       1   25677   25665   25674   25683       1
   25677   25686  -25692   25683       1   25674   25665   25677   25686       1
   25674   25683  -25692   25686       1   25668   25674   25665   25677       1
   25668   25674   25683   25692       1   25665   25674   25683   25692       1
   25665   25677  -25686   25692       1   25659   25641   25656   25665       1
   25659   25668  -25674   25665       1   25659   25668   25674   25683       1
   25656   25641   25659   25668       1   25656   25665  -25674   25668       1
   25656   25665   25674   25683       1   25656   25665   25677   25686       1
   25644   25656   25641   25659       1   25644   25656   25665   25674       1
   25644   25656   25665   25677       1   25641   25656   25665   25674       1
   25641   25656   25665   25677       1   25641   25659  -25668   25674       1
   25635   25620   25641   25656       1   25635   25620   25641   25659       1
   25623   25605   25620   25635       1   25623   25605   25620   25641       1
   25623   25644  -25656   25641       1   25623   25644   25656   25665       1
   25620   25605   25623   25644       1   25620   25641  -25656   25644       1
   25620   25641   25656   25665       1   25620   25641   25659   25668       1
   25617   25602   25614   25626       1   25617   25635   25620   25641       1
   25614   25602   25617   25635       1   25605   25596   25599   25608       1
   25605   25596   25602   25614       1   25605   25596   25602   25617       1
   25605   25620  -25635   25617       1   25605   25620   25641   25656       1
   25605   25620   25641   25659       1   25605   25623  -25644   25656       1
   25602   25596   25599   25608       1   25602   25596   25605   25620       1
   25602   25596   25605   25623       1   25602   25614  -25626   25608       1
   25602   25617  -25635   25620       1   25599   25596   25602   25614       1
   25599   25596   25602   25617       1   25599   25596   25605   25620       1
   25599   25596   25605   25623       1   25599   25608  -25626   25614       1
   25596   25599   25608   25626       1   25596   25602  -25614   25626       1
   25596   25602   25617   25635       1   25596   25605  -25620   25635       1
   25596   25605   25620   25641       1   25596   25605   25623   25644       1
   25785   25773   25782   25791       1   25785   25794  -25800   25791       1
   25782   25773   25785   25794       1   25782   25791  -25800   25794       1
   25776   25782   25773   25785       1   25776   25782   25791   25800       1
   25773   25782   25791   25800       1   25773   25785  -25794   25800       1
   25767   25749   25764   25773       1   25767   25776  -25782   25773       1
   25767   25776   25782   25791       1   25764   25749   25767   25776       1
   25764   25773  -25782   25776       1   25764   25773   25782   25791       1
   25764   25773   25785   25794       1   25752   25764   25749   25767       1
   25752   25764   25773   25782       1   25752   25764   25773   25785       1
   25749   25764   25773   25782       1   25749   25764   25773   25785       1
   25749   25767  -25776   25782       1   25743   25728   25749   25764       1
   25743   25728   25749   25767       1   25731   25713   25728   25743       1
   25731   25713   25728   25749       1   25731   25752  -25764   25749       1
   25731   25752   25764   25773       1   25728   25713   25731   25752       1
   25728   25749  -25764   25752       1   25728   25749   25764   25773       1
   25728   25749   25767   25776       1   25725   25710   25722   25734       1
   25725   25743   25728   25749       1   25722   25710   25725   25743       1
   25713   25704   25707   25716       1   25713   25704   25710   25722       1
   25713   25704   25710   25725       1   25713   25728  -25743   25725       1
   25713   25728   25749   25764       1   25713   25728   25749   25767       1
   25713   25731  -25752   25764       1   25710   25704   25707   25716       1
   25710   25704   25713   25728       1   25710   25704   25713   25731       1
   25710   25722  -25734   25716       1   25710   25725  -25743   25728       1
   25707   25704   25710   25722       1   25707   25704   25710   25725       1
   25707   25704   25713   25728       1   25707   25704   25713   25731       1
   25707   25716  -25734   25722       1   25704   25707   25716   25734       1
   25704   25710  -25722   25734       1   25704   25710   25725   25743       1
   25704   25713  -25728   25743       1   25704   25713   25728   25749       1
   25704   25713   25731   25752       1   25893   25881   25890   25899       1
   25893   25902  -25908   25899       1   25890   25881   25893   25902       1
   25890   25899  -25908   25902       1   25884   25890   25881   25893       1
   25884   25890   25899   25908       1   25881   25890   25899   25908       1
   25881   25893  -25902   25908       1   25875   25857   25872   25881       1
   25875   25884  -25890   25881       1   25875   25884   25890   25899       1
   25872   25857   25875   25884       1   25872   25881  -25890   25884       1
   25872   25881   25890   25899       1   25872   25881   25893   25902       1
   25860   25872   25857   25875       1   25860   25872   25881   25890       1
   25860   25872   25881   25893       1   25857   25872   25881   25890       1
   25857   25872   25881   25893       1   25857   25875  -25884   25890       1
   25851   25836   25857   25872       1   25851   25836   25857   25875       1
   25839   25821   25836   25851       1   25839   25821   25836   25857       1
   25839   25860  -25872   25857       1   25839   25860   25872   25881       1
   25836   25821   25839   25860       1   25836   25857  -25872   25860       1
   25836   25857   25872   25881       1   25836   25857   25875   25884       1
   25833   25818   25830   25842       1   25833   25851   25836   25857       1
   25830   25818   25833   25851       1   25821   25812   25815   25824       1
   25821   25812   25818   25830       1   25821   25812   25818   25833       1
   25821   25836  -25851   25833       1   25821   25836   25857   25872       1
   25821   25836   25857   25875       1   25821   25839  -25860   25872       1
   25818   25812   25815   25824       1   25818   25812   25821   25836       1
   25818   25812   25821   25839       1   25818   25830  -25842   25824       1
   25818   25833  -25851   25836       1   25815   25812   25818   25830       1
   25815   25812   25818   25833       1   25815   25812   25821   25836       1
   25815   25812   25821   25839       1   25815   25824  -25842   25830       1
   25812   25815   25824   25842       1   25812   25818  -25830   25842       1
   25812   25818   25833   25851       1   25812   25821  -25836   25851       1
   25812   25821   25836   25857       1   25812   25821   25839   25860       1
   26001   25989   25998   26007       1   26001   26010  -26016   26007       1
   25998   25989   26001   26010       1   25998   26007  -26016   26010       1
   25992   25998   25989   26001       1   25992   25998   26007   26016       1
   25989   25998   26007   26016       1   25989   26001  -26010   26016       1
   25983   25965   25980   25989       1   25983   25992  -25998   25989       1
   25983   25992   25998   26007       1   25980   25965   25983   25992       1
   25980   25989  -25998   25992       1   25980   25989   25998   26007       1
   25980   25989   26001   26010       1   25968   25980   25965   25983       1
   25968   25980   25989   25998       1   25968   25980   25989   26001       1
   25965   25980   25989   25998       1   25965   25980   25989   26001       1
   25965   25983  -25992   25998       1   25959   25944   25965   25980       1
   25959   25944   25965   25983       1   25947   25929   25944   25959       1
   25947   25929   25944   25965       1   25947   25968  -25980   25965       1
   25947   25968   25980   25989       1   25944   25929   25947   25968       1
   25944   25965  -25980   25968       1   25944   25965   25980   25989       1
   25944   25965   25983   25992       1   25941   25926   25938   25950       1
   25941   25959   25944   25965       1   25938   25926   25941   25959       1
   25929   25920   25923   25932       1   25929   25920   25926   25938       1
   25929   25920   25926   25941       1   25929   25944  -25959   25941       1
   25929   25944   25965   25980       1   25929   25944   25965   25983       1
   25929   25947  -25968   25980       1   25926   25920   25923   25932       1
   25926   25920   25929   25944       1   25926   25920   25929   25947       1
   25926   25938  -25950   25932       1   25926   25941  -25959   25944       1
   25923   25920   25926   25938       1   25923   25920   25926   25941       1
   25923   25920   25929   25944       1   25923   25920   25929   25947       1
   25923   25932  -25950   25938       1   25920   25923   25932   25950       1
   25920   25926  -25938   25950       1   25920   25926   25941   25959       1
   25920   25929  -25944   25959       1   25920   25929   25944   25965       1
   25920   25929   25947   25968       1   26109   26097   26106   26115       1
   26109   26118  -26124   26115       1   26106   26097   26109   26118       1
   26106   26115  -26124   26118       1   26100   26106   26097   26109       1
   26100   26106   26115   26124       1   26097   26106   26115   26124       1
   26097   26109  -26118   26124       1   26091   26073   26088   26097       1
   26091   26100  -26106   26097       1   26091   26100   26106   26115       1
   26088   26073   26091   26100       1   26088   26097  -26106   26100       1
   26088   26097   26106   26115       1   26088   26097   26109   26118       1
   26076   26088   26073   26091       1   26076   26088   26097   26106       1
   26076   26088   26097   26109       1   26073   26088   26097   26106       1
   26073   26088   26097   26109       1   26073   26091  -26100   26106       1
   26067   26052   26073   26088       1   26067   26052   26073   26091       1
   26055   26037   26052   26067       1   26055   26037   26052   26073       1
   26055   26076  -26088   26073       1   26055   26076   26088   26097       1
   26052   26037   26055   26076       1   26052   26073  -26088   26076       1
   26052   26073   26088   26097       1   26052   26073   26091   26100       1
   26049   26034   26046   26058       1   26049   26067   26052   26073       1
   26046   26034   26049   26067       1   26037   26028   26031   26040       1
   26037   26028   26034   26046       1   26037   26028   26034   26049       1
   26037   26052  -26067   26049       1   26037   26052   26073   26088       1
   26037   26052   26073   26091       1   26037   26055  -26076   26088       1
   26034   26028   26031   26040       1   26034   26028   26037   26052       1
   26034   26028   26037   26055       1   26034   26046  -26058   26040       1
   26034   26049  -26067   26052       1   26031   26028   26034   26046       1
   26031   26028   26034   26049       1   26031   26028   26037   26052       1
   26031   26028   26037   26055       1   26031   26040  -26058   26046       1
   26028   26031   26040   26058       1   26028   26034  -26046   26058       1
   26028   26034   26049   26067       1   26028   26037  -26052   26067       1
   26028   26037   26052   26073       1   26028   26037   26055   26076       1
   26217   26205   26214   26223       1   26217   26226  -26232   26223       1
   26214   26205   26217   26226       1   26214   26223  -26232   26226       1
   26208   26214   26205   26217       1   26208   26214   26223   26232       1
   26205   26214   26223   26232       1   26205   26217  -26226   26232       1
   26199   26181   26196   26205       1   26199   26208  -26214   26205       1
   26199   26208   26214   26223       1   26196   26181   26199   26208       1
   26196   26205  -26214   26208       1   26196   26205   26214   26223       1
   26196   26205   26217   26226       1   26184   26196   26181   26199       1
   26184   26196   26205   26214       1   26184   26196   26205   26217       1
   26181   26196   26205   26214       1   26181   26196   26205   26217       1
   26181   26199  -26208   26214       1   26175   26160   26181   26196       1
   26175   26160   26181   26199       1   26163   26145   26160   26175       1
   26163   26145   26160   26181       1   26163   26184  -26196   26181       1
   26163   26184   26196   26205       1   26160   26145   26163   26184       1
   26160   26181  -26196   26184       1   26160   26181   26196   26205       1
   26160   26181   26199   26208       1   26157   26142   26154   26166       1
   26157   26175   26160   26181       1   26154   26142   26157   26175       1
   26145   26136   26139   26148       1   26145   26136   26142   26154       1
   26145   26136   26142   26157       1   26145   26160  -26175   26157       1
   26145   26160   26181   26196       1   26145   26160   26181   26199       1
   26145   26163  -26184   26196       1   26142   26136   26139   26148       1
   26142   26136   26145   26160       1   26142   26136   26145   26163       1
   26142   26154  -26166   26148       1   26142   26157  -26175   26160       1
   26139   26136   26142   26154       1   26139   26136   26142   26157       1
   26139   26136   26145   26160       1   26139   26136   26145   26163       1
   26139   26148  -26166   26154       1   26136   26139   26148   26166       1
   26136   26142  -26154   26166       1   26136   26142   26157   26175       1
   26136   26145  -26160   26175       1   26136   26145   26160   26181       1
   26136   26145   26163   26184       1   26325   26313   26322   26331       1
   26325   26334  -26340   26331       1   26322   26313   26325   26334       1
   26322   26331  -26340   26334       1   26316   26322   26313   26325       1
   26316   26322   26331   26340       1   26313   26322   26331   26340       1
   26313   26325  -26334   26340       1   26307   26289   26304   26313       1
   26307   26316  -26322   26313       1   26307   26316   26322   26331       1
   26304   26289   26307   26316       1   26304   26313  -26322   26316       1
   26304   26313   26322   26331       1   26304   26313   26325   26334       1
   26292   26304   26289   26307       1   26292   26304   26313   26322       1
   26292   26304   26313   26325       1   26289   26304   26313   26322       1
   26289   26304   26313   26325       1   26289   26307  -26316   26322       1
   26283   26268   26289   26304       1   26283   26268   26289   26307       1
   26271   26253   26268   26283       1   26271   26253   26268   26289       1
   26271   26292  -26304   26289       1   26271   26292   26304   26313       1
   26268   26253   26271   26292       1   26268   26289  -26304   26292       1
   26268   26289   26304   26313       1   26268   26289   26307   26316       1
   26265   26250   26262   26274       1   26265   26283   26268   26289       1
   26262   26250   26265   26283       1   26253   26244   26247   26256       1
   26253   26244   26250   26262       1   26253   26244   26250   26265       1
   26253   26268  -26283   26265       1   26253   26268   26289   26304       1
   26253   26268   26289   26307       1   26253   26271  -26292   26304       1
   26250   26244   26247   26256       1   26250   26244   26253   26268       1
   26250   26244   26253   26271       1   26250   26262  -26274   26256       1
   26250   26265  -26283   26268       1   26247   26244   26250   26262       1
   26247   26244   26250   26265       1   26247   26244   26253   26268       1
   26247   26244   26253   26271       1   26247   26256  -26274   26262       1
   26244   26247   26256   26274       1   26244   26250  -26262   26274       1
   26244   26250   26265   26283       1   26244   26253  -26268   26283       1
   26244   26253   26268   26289       1   26244   26253   26271   26292       1
   26433   26421   26430   26439       1   26433   26442  -26448   26439       1
   26430   26421   26433   26442       1   26430   26439  -26448   26442       1
   26424   26430   26421   26433       1   26424   26430   26439   26448       1
   26421   26430   26439   26448       1   26421   26433  -26442   26448       1
   26415   26397   26412   26421       1   26415   26424  -26430   26421       1
   26415   26424   26430   26439       1   26412   26397   26415   26424       1
   26412   26421  -26430   26424       1   26412   26421   26430   26439       1
   26412   26421   26433   26442       1   26400   26412   26397   26415       1
   26400   26412   26421   26430       1   26400   26412   26421   26433       1
   26397   26412   26421   26430       1   26397   26412   26421   26433       1
   26397   26415  -26424   26430       1   26391   26376   26397   26412       1
   26391   26376   26397   26415       1   26379   26361   26376   26391       1
   26379   26361   26376   26397       1   26379   26400  -26412   26397       1
   26379   26400   26412   26421       1   26376   26361   26379   26400       1
   26376   26397  -26412   26400       1   26376   26397   26412   26421       1
   26376   26397   26415   26424       1   26373   26358   26370   26382       1
   26373   26391   26376   26397       1   26370   26358   26373   26391       1
   26361   26352   26355   26364       1   26361   26352   26358   26370       1
   26361   26352   26358   26373       1   26361   26376  -26391   26373       1
   26361   26376   26397   26412       1   26361   26376   26397   26415       1
   26361   26379  -26400   26412       1   26358   26352   26355   26364       1
   26358   26352   26361   26376       1   26358   26352   26361   26379       1
   26358   26370  -26382   26364       1   26358   26373  -26391   26376       1
   26355   26352   26358   26370       1   26355   26352   26358   26373       1
   26355   26352   26361   26376       1   26355   26352   26361   26379       1
   26355   26364  -26382   26370       1   26352   26355   26364   26382       1
   26352   26358  -26370   26382       1   26352   26358   26373   26391       1
   26352   26361  -26376   26391       1   26352   26361   26376   26397       1
   26352   26361   26379   26400       1   26541   26529   26538   26547       1
   26541   26550  -26556   26547       1   26538   26529   26541   26550       1
   26538   26547  -26556   26550       1   26532   26538   26529   26541       1
   26532   26538   26547   26556       1   26529   26538   26547   26556       1
   26529   26541  -26550   26556       1   26523   26505   26520   26529       1
   26523   26532  -26538   26529       1   26523   26532   26538   26547       1
   26520   26505   26523   26532       1   26520   26529  -26538   26532       1
   26520   26529   26538   26547       1   26520   26529   26541   26550       1
   26508   26520   26505   26523       1   26508   26520   26529   26538       1
   26508   26520   26529   26541       1   26505   26520   26529   26538       1
   26505   26520   26529   26541       1   26505   26523  -26532   26538       1
   26499   26484   26505   26520       1   26499   26484   26505   26523       1
   26487   26469   26484   26499       1   26487   26469   26484   26505       1
   26487   26508  -26520   26505       1   26487   26508   26520   26529       1
   26484   26469   26487   26508       1   26484   26505  -26520   26508       1
   26484   26505   26520   26529       1   26484   26505   26523   26532       1
   26481   26466   26478   26490       1   26481   26499   26484   26505       1
   26478   26466   26481   26499       1   26469   26460   26463   26472       1
   26469   26460   26466   26478       1   26469   26460   26466   26481       1
   26469   26484  -26499   26481       1   26469   26484   26505   26520       1
   26469   26484   26505   26523       1   26469   26487  -26508   26520       1
   26466   26460   26463   26472       1   26466   26460   26469   26484       1
   26466   26460   26469   26487       1   26466   26478  -26490   26472       1
   26466   26481  -26499   26484       1   26463   26460   26466   26478       1
   26463   26460   26466   26481       1   26463   26460   26469   26484       1
   26463   26460   26469   26487       1   26463   26472  -26490   26478       1
   26460   26463   26472   26490       1   26460   26466  -26478   26490       1
   26460   26466   26481   26499       1   26460   26469  -26484   26499       1
   26460   26469   26484   26505       1   26460   26469   26487   26508       1
   26649   26637   26646   26655       1   26649   26658  -26664   26655       1
   26646   26637   26649   26658       1   26646   26655  -26664   26658       1
   26640   26646   26637   26649       1   26640   26646   26655   26664       1
   26637   26646   26655   26664       1   26637   26649  -26658   26664       1
   26631   26613   26628   26637       1   26631   26640  -26646   26637       1
   26631   26640   26646   26655       1   26628   26613   26631   26640       1
   26628   26637  -26646   26640       1   26628   26637   26646   26655       1
   26628   26637   26649   26658       1   26616   26628   26613   26631       1
   26616   26628   26637   26646       1   26616   26628   26637   26649       1
   26613   26628   26637   26646       1   26613   26628   26637   26649       1
   26613   26631  -26640   26646       1   26607   26592   26613   26628       1
   26607   26592   26613   26631       1   26595   26577   26592   26607       1
   26595   26577   26592   26613       1   26595   26616  -26628   26613       1
   26595   26616   26628   26637       1   26592   26577   26595   26616       1
   26592   26613  -26628   26616       1   26592   26613   26628   26637       1
   26592   26613   26631   26640       1   26589   26574   26586   26598       1
   26589   26607   26592   26613       1   26586   26574   26589   26607       1
   26577   26568   26571   26580       1   26577   26568   26574   26586       1
   26577   26568   26574   26589       1   26577   26592  -26607   26589       1
   26577   26592   26613   26628       1   26577   26592   26613   26631       1
   26577   26595  -26616   26628       1   26574   26568   26571   26580       1
   26574   26568   26577   26592       1   26574   26568   26577   26595       1
   26574   26586  -26598   26580       1   26574   26589  -26607   26592       1
   26571   26568   26574   26586       1   26571   26568   26574   26589       1
   26571   26568   26577   26592       1   26571   26568   26577   26595       1
   26571   26580  -26598   26586       1   26568   26571   26580   26598       1
   26568   26574  -26586   26598       1   26568   26574   26589   26607       1
   26568   26577  -26592   26607       1   26568   26577   26592   26613       1
   26568   26577   26595   26616       1   26757   26745   26754   26763       1
   26757   26766  -26772   26763       1   26754   26745   26757   26766       1
   26754   26763  -26772   26766       1   26748   26754   26745   26757       1
   26748   26754   26763   26772       1   26745   26754   26763   26772       1
   26745   26757  -26766   26772       1   26739   26721   26736   26745       1
   26739   26748  -26754   26745       1   26739   26748   26754   26763       1
   26736   26721   26739   26748       1   26736   26745  -26754   26748       1
   26736   26745   26754   26763       1   26736   26745   26757   26766       1
   26724   26736   26721   26739       1   26724   26736   26745   26754       1
   26724   26736   26745   26757       1   26721   26736   26745   26754       1
   26721   26736   26745   26757       1   26721   26739  -26748   26754       1
   26715   26700   26721   26736       1   26715   26700   26721   26739       1
   26703   26685   26700   26715       1   26703   26685   26700   26721       1
   26703   26724  -26736   26721       1   26703   26724   26736   26745       1
   26700   26685   26703   26724       1   26700   26721  -26736   26724       1
   26700   26721   26736   26745       1   26700   26721   26739   26748       1
   26697   26682   26694   26706       1   26697   26715   26700   26721       1
   26694   26682   26697   26715       1   26685   26676   26679   26688       1
   26685   26676   26682   26694       1   26685   26676   26682   26697       1
   26685   26700  -26715   26697       1   26685   26700   26721   26736       1
   26685   26700   26721   26739       1   26685   26703  -26724   26736       1
   26682   26676   26679   26688       1   26682   26676   26685   26700       1
   26682   26676   26685   26703       1   26682   26694  -26706   26688       1
   26682   26697  -26715   26700       1   26679   26676   26682   26694       1
   26679   26676   26682   26697       1   26679   26676   26685   26700       1
   26679   26676   26685   26703       1   26679   26688  -26706   26694       1
   26676   26679   26688   26706       1   26676   26682  -26694   26706       1
   26676   26682   26697   26715       1   26676   26685  -26700   26715       1
   26676   26685   26700   26721       1   26676   26685   26703   26724       1
   26865   26853   26862   26871       1   26865   26874  -26880   26871       1
   26862   26853   26865   26874       1   26862   26871  -26880   26874       1
   26856   26862   26853   26865       1   26856   26862   26871   26880       1
   26853   26862   26871   26880       1   26853   26865  -26874   26880       1
   26847   26829   26844   26853       1   26847   26856  -26862   26853       1
   26847   26856   26862   26871       1   26844   26829   26847   26856       1
   26844   26853  -26862   26856       1   26844   26853   26862   26871       1
   26844   26853   26865   26874       1   26832   26844   26829   26847       1
   26832   26844   26853   26862       1   26832   26844   26853   26865       1
   26829   26844   26853   26862       1   26829   26844   26853   26865       1
   26829   26847  -26856   26862       1   26823   26808   26829   26844       1
   26823   26808   26829   26847       1   26811   26793   26808   26823       1
   26811   26793   26808   26829       1   26811   26832  -26844   26829       1
   26811   26832   26844   26853       1   26808   26793   26811   26832       1
   26808   26829  -26844   26832       1   26808   26829   26844   26853       1
   26808   26829   26847   26856       1   26805   26790   26802   26814       1
   26805   26823   26808   26829       1   26802   26790   26805   26823       1
   26793   26784   26787   26796       1   26793   26784   26790   26802       1
   26793   26784   26790   26805       1   26793   26808  -26823   26805       1
   26793   26808   26829   26844       1   26793   26808   26829   26847       1
   26793   26811  -26832   26844       1   26790   26784   26787   26796       1
   26790   26784   26793   26808       1   26790   26784   26793   26811       1
   26790   26802  -26814   26796       1   26790   26805  -26823   26808       1
   26787   26784   26790   26802       1   26787   26784   26790   26805       1
   26787   26784   26793   26808       1   26787   26784   26793   26811       1
   26787   26796  -26814   26802       1   26784   26787   26796   26814       1
   26784   26790  -26802   26814       1   26784   26790   26805   26823       1
   26784   26793  -26808   26823       1   26784   26793   26808   26829       1
   26784   26793   26811   26832       1   26973   26961   26970   26979       1
   26973   26982  -26988   26979       1   26970   26961   26973   26982       1
   26970   26979  -26988   26982       1   26964   26970   26961   26973       1
   26964   26970   26979   26988       1   26961   26970   26979   26988       1
   26961   26973  -26982   26988       1   26955   26937   26952   26961       1
   26955   26964  -26970   26961       1   26955   26964   26970   26979       1
   26952   26937   26955   26964       1   26952   26961  -26970   26964       1
   26952   26961   26970   26979       1   26952   26961   26973   26982       1
   26940   26952   26937   26955       1   26940   26952   26961   26970       1
   26940   26952   26961   26973       1   26937   26952   26961   26970       1
   26937   26952   26961   26973       1   26937   26955  -26964   26970       1
   26931   26916   26937   26952       1   26931   26916   26937   26955       1
   26919   26901   26916   26931       1   26919   26901   26916   26937       1
   26919   26940  -26952   26937       1   26919   26940   26952   26961       1
   26916   26901   26919   26940       1   26916   26937  -26952   26940       1
   26916   26937   26952   26961       1   26916   26937   26955   26964       1
   26913   26898   26910   26922       1   26913   26931   26916   26937       1
   26910   26898   26913   26931       1   26901   26892   26895   26904       1
   26901   26892   26898   26910       1   26901   26892   26898   26913       1
   26901   26916  -26931   26913       1   26901   26916   26937   26952       1
   26901   26916   26937   26955       1   26901   26919  -26940   26952       1
   26898   26892   26895   26904       1   26898   26892   26901   26916       1
   26898   26892   26901   26919       1   26898   26910  -26922   26904       1
   26898   26913  -26931   26916       1   26895   26892   26898   26910       1
   26895   26892   26898   26913       1   26895   26892   26901   26916       1
   26895   26892   26901   26919       1   26895   26904  -26922   26910       1
   26892   26895   26904   26922       1   26892   26898  -26910   26922       1
   26892   26898   26913   26931       1   26892   26901  -26916   26931       1
   26892   26901   26916   26937       1   26892   26901   26919   26940       1
   27081   27069   27078   27087       1   27081   27090  -27096   27087       1
   27078   27069   27081   27090       1   27078   27087  -27096   27090       1
   27072   27078   27069   27081       1   27072   27078   27087   27096       1
   27069   27078   27087   27096       1   27069   27081  -27090   27096       1
   27063   27045   27060   27069       1   27063   27072  -27078   27069       1
   27063   27072   27078   27087       1   27060   27045   27063   27072       1
   27060   27069  -27078   27072       1   27060   27069   27078   27087       1
   27060   27069   27081   27090       1   27048   27060   27045   27063       1
   27048   27060   27069   27078       1   27048   27060   27069   27081       1
   27045   27060   27069   27078       1   27045   27060   27069   27081       1
   27045   27063  -27072   27078       1   27039   27024   27045   27060       1
   27039   27024   27045   27063       1   27027   27009   27024   27039       1
   27027   27009   27024   27045       1   27027   27048  -27060   27045       1
   27027   27048   27060   27069       1   27024   27009   27027   27048       1
   27024   27045  -27060   27048       1   27024   27045   27060   27069       1
   27024   27045   27063   27072       1   27021   27006   27018   27030       1
   27021   27039   27024   27045       1   27018   27006   27021   27039       1
   27009   27000   27003   27012       1   27009   27000   27006   27018       1
   27009   27000   27006   27021       1   27009   27024  -27039   27021       1
   27009   27024   27045   27060       1   27009   27024   27045   27063       1
   27009   27027  -27048   27060       1   27006   27000   27003   27012       1
   27006   27000   27009   27024       1   27006   27000   27009   27027       1
   27006   27018  -27030   27012       1   27006   27021  -27039   27024       1
   27003   27000   27006   27018       1   27003   27000   27006   27021       1
   27003   27000   27009   27024       1   27003   27000   27009   27027       1
   27003   27012  -27030   27018       1   27000   27003   27012   27030       1
   27000   27006  -27018   27030       1   27000   27006   27021   27039       1
   27000   27009  -27024   27039       1   27000   27009   27024   27045       1
   27000   27009   27027   27048       1   27189   27177   27186   27195       1
   27189   27198  -27204   27195       1   27186   27177   27189   27198       1
   27186   27195  -27204   27198       1   27180   27186   27177   27189       1
   27180   27186   27195   27204       1   27177   27186   27195   27204       1
   27177   27189  -27198   27204       1   27171   27153   27168   27177       1
   27171   27180  -27186   27177       1   27171   27180   27186   27195       1
   27168   27153   27171   27180       1   27168   27177  -27186   27180       1
   27168   27177   27186   27195       1   27168   27177   27189   27198       1
   27156   27168   27153   27171       1   27156   27168   27177   27186       1
   27156   27168   27177   27189       1   27153   27168   27177   27186       1
   27153   27168   27177   27189       1   27153   27171  -27180   27186       1
   27147   27132   27153   27168       1   27147   27132   27153   27171       1
   27135   27117   27132   27147       1   27135   27117   27132   27153       1
   27135   27156  -27168   27153       1   27135   27156   27168   27177       1
   27132   27117   27135   27156       1   27132   27153  -27168   27156       1
   27132   27153   27168   27177       1   27132   27153   27171   27180       1
   27129   27114   27126   27138       1   27129   27147   27132   27153       1
   27126   27114   27129   27147       1   27117   27108   27111   27120       1
   27117   27108   27114   27126       1   27117   27108   27114   27129       1
   27117   27132  -27147   27129       1   27117   27132   27153   27168       1
   27117   27132   27153   27171       1   27117   27135  -27156   27168       1
   27114   27108   27111   27120       1   27114   27108   27117   27132       1
   27114   27108   27117   27135       1   27114   27126  -27138   27120       1
   27114   27129  -27147   27132       1   27111   27108   27114   27126       1
   27111   27108   27114   27129       1   27111   27108   27117   27132       1
   27111   27108   27117   27135       1   27111   27120  -27138   27126       1
   27108   27111   27120   27138       1   27108   27114  -27126   27138       1
   27108   27114   27129   27147       1   27108   27117  -27132   27147       1
   27108   27117   27132   27153       1   27108   27117   27135   27156       1
   27297   27285   27294   27303       1   27297   27306  -27312   27303       1
   27294   27285   27297   27306       1   27294   27303  -27312   27306       1
   27288   27294   27285   27297       1   27288   27294   27303   27312       1
   27285   27294   27303   27312       1   27285   27297  -27306   27312       1
   27279   27261   27276   27285       1   27279   27288  -27294   27285       1
   27279   27288   27294   27303       1   27276   27261   27279   27288       1
   27276   27285  -27294   27288       1   27276   27285   27294   27303       1
   27276   27285   27297   27306       1   27264   27276   27261   27279       1
   27264   27276   27285   27294       1   27264   27276   27285   27297       1
   27261   27276   27285   27294       1   27261   27276   27285   27297       1
   27261   27279  -27288   27294       1   27255   27240   27261   27276       1
   27255   27240   27261   27279       1   27243   27225   27240   27255       1
   27243   27225   27240   27261       1   27243   27264  -27276   27261       1
   27243   27264   27276   27285       1   27240   27225   27243   27264       1
   27240   27261  -27276   27264       1   27240   27261   27276   27285       1
   27240   27261   27279   27288       1   27237   27222   27234   27246       1
   27237   27255   27240   27261       1   27234   27222   27237   27255       1
   27225   27216   27219   27228       1   27225   27216   27222   27234       1
   27225   27216   27222   27237       1   27225   27240  -27255   27237       1
   27225   27240   27261   27276       1   27225   27240   27261   27279       1
   27225   27243  -27264   27276       1   27222   27216   27219   27228       1
   27222   27216   27225   27240       1   27222   27216   27225   27243       1
   27222   27234  -27246   27228       1   27222   27237  -27255   27240       1
   27219   27216   27222   27234       1   27219   27216   27222   27237       1
   27219   27216   27225   27240       1   27219   27216   27225   27243       1
   27219   27228  -27246   27234       1   27216   27219   27228   27246       1
   27216   27222  -27234   27246       1   27216   27222   27237   27255       1
   27216   27225  -27240   27255       1   27216   27225   27240   27261       1
   27216   27225   27243   27264       1   27405   27393   27402   27411       1
   27405   27414  -27420   27411       1   27402   27393   27405   27414       1
   27402   27411  -27420   27414       1   27396   27402   27393   27405       1
   27396   27402   27411   27420       1   27393   27402   27411   27420       1
   27393   27405  -27414   27420       1   27387   27369   27384   27393       1
   27387   27396  -27402   27393       1   27387   27396   27402   27411       1
   27384   27369   27387   27396       1   27384   27393  -27402   27396       1
   27384   27393   27402   27411       1   27384   27393   27405   27414       1
   27372   27384   27369   27387       1   27372   27384   27393   27402       1
   27372   27384   27393   27405       1   27369   27384   27393   27402       1
   27369   27384   27393   27405       1   27369   27387  -27396   27402       1
   27363   27348   27369   27384       1   27363   27348   27369   27387       1
   27351   27333   27348   27363       1   27351   27333   27348   27369       1
   27351   27372  -27384   27369       1   27351   27372   27384   27393       1
   27348   27333   27351   27372       1   27348   27369  -27384   27372       1
   27348   27369   27384   27393       1   27348   27369   27387   27396       1
   27345   27330   27342   27354       1   27345   27363   27348   27369       1
   27342   27330   27345   27363       1   27333   27324   27327   27336       1
   27333   27324   27330   27342       1   27333   27324   27330   27345       1
   27333   27348  -27363   27345       1   27333   27348   27369   27384       1
   27333   27348   27369   27387       1   27333   27351  -27372   27384       1
   27330   27324   27327   27336       1   27330   27324   27333   27348       1
   27330   27324   27333   27351       1   27330   27342  -27354   27336       1
   27330   27345  -27363   27348       1   27327   27324   27330   27342       1
   27327   27324   27330   27345       1   27327   27324   27333   27348       1
   27327   27324   27333   27351       1   27327   27336  -27354   27342       1
   27324   27327   27336   27354       1   27324   27330  -27342   27354       1
   27324   27330   27345   27363       1   27324   27333  -27348   27363       1
   27324   27333   27348   27369       1   27324   27333   27351   27372       1
   27513   27501   27510   27519       1   27513   27522  -27528   27519       1
   27510   27501   27513   27522       1   27510   27519  -27528   27522       1
   27504   27510   27501   27513       1   27504   27510   27519   27528       1
   27501   27510   27519   27528       1   27501   27513  -27522   27528       1
   27495   27477   27492   27501       1   27495   27504  -27510   27501       1
   27495   27504   27510   27519       1   27492   27477   27495   27504       1
   27492   27501  -27510   27504       1   27492   27501   27510   27519       1
   27492   27501   27513   27522       1   27480   27492   27477   27495       1
   27480   27492   27501   27510       1   27480   27492   27501   27513       1
   27477   27492   27501   27510       1   27477   27492   27501   27513       1
   27477   27495  -27504   27510       1   27471   27456   27477   27492       1
   27471   27456   27477   27495       1   27459   27441   27456   27471       1
   27459   27441   27456   27477       1   27459   27480  -27492   27477       1
   27459   27480   27492   27501       1   27456   27441   27459   27480       1
   27456   27477  -27492   27480       1   27456   27477   27492   27501       1
   27456   27477   27495   27504       1   27453   27438   27450   27462       1
   27453   27471   27456   27477       1   27450   27438   27453   27471       1
   27441   27432   27435   27444       1   27441   27432   27438   27450       1
   27441   27432   27438   27453       1   27441   27456  -27471   27453       1
   27441   27456   27477   27492       1   27441   27456   27477   27495       1
   27441   27459  -27480   27492       1   27438   27432   27435   27444       1
   27438   27432   27441   27456       1   27438   27432   27441   27459       1
   27438   27450  -27462   27444       1   27438   27453  -27471   27456       1
   27435   27432   27438   27450       1   27435   27432   27438   27453       1
   27435   27432   27441   27456       1   27435   27432   27441   27459       1
   27435   27444  -27462   27450       1   27432   27435   27444   27462       1
   27432   27438  -27450   27462       1   27432   27438   27453   27471       1
   27432   27441  -27456   27471       1   27432   27441   27456   27477       1
   27432   27441   27459   27480       1   27621   27609   27618   27627       1
   27621   27630  -27636   27627       1   27618   27609   27621   27630       1
   27618   27627  -27636   27630       1   27612   27618   27609   27621       1
   27612   27618   27627   27636       1   27609   27618   27627   27636       1
   27609   27621  -27630   27636       1   27603   27585   27600   27609       1
   27603   27612  -27618   27609       1   27603   27612   27618   27627       1
   27600   27585   27603   27612       1   27600   27609  -27618   27612       1
   27600   27609   27618   27627       1   27600   27609   27621   27630       1
   27588   27600   27585   27603       1   27588   27600   27609   27618       1
   27588   27600   27609   27621       1   27585   27600   27609   27618       1
   27585   27600   27609   27621       1   27585   27603  -27612   27618       1
   27579   27564   27585   27600       1   27579   27564   27585   27603       1
   27567   27549   27564   27579       1   27567   27549   27564   27585       1
   27567   27588  -27600   27585       1   27567   27588   27600   27609       1
   27564   27549   27567   27588       1   27564   27585  -27600   27588       1
   27564   27585   27600   27609       1   27564   27585   27603   27612       1
   27561   27546   27558   27570       1   27561   27579   27564   27585       1
   27558   27546   27561   27579       1   27549   27540   27543   27552       1
   27549   27540   27546   27558       1   27549   27540   27546   27561       1
   27549   27564  -27579   27561       1   27549   27564   27585   27600       1
   27549   27564   27585   27603       1   27549   27567  -27588   27600       1
   27546   27540   27543   27552       1   27546   27540   27549   27564       1
   27546   27540   27549   27567       1   27546   27558  -27570   27552       1
   27546   27561  -27579   27564       1   27543   27540   27546   27558       1
   27543   27540   27546   27561       1   27543   27540   27549   27564       1
   27543   27540   27549   27567       1   27543   27552  -27570   27558       1
   27540   27543   27552   27570       1   27540   27546  -27558   27570       1
   27540   27546   27561   27579       1   27540   27549  -27564   27579       1
   27540   27549   27564   27585       1   27540   27549   27567   27588       1
   27729   27717   27726   27735       1   27729   27738  -27744   27735       1
   27726   27717   27729   27738       1   27726   27735  -27744   27738       1
   27720   27726   27717   27729       1   27720   27726   27735   27744       1
   27717   27726   27735   27744       1   27717   27729  -27738   27744       1
   27711   27693   27708   27717       1   27711   27720  -27726   27717       1
   27711   27720   27726   27735       1   27708   27693   27711   27720       1
   27708   27717  -27726   27720       1   27708   27717   27726   27735       1
   27708   27717   27729   27738       1   27696   27708   27693   27711       1
   27696   27708   27717   27726       1   27696   27708   27717   27729       1
   27693   27708   27717   27726       1   27693   27708   27717   27729       1
   27693   27711  -27720   27726       1   27687   27672   27693   27708       1
   27687   27672   27693   27711       1   27675   27657   27672   27687       1
   27675   27657   27672   27693       1   27675   27696  -27708   27693       1
   27675   27696   27708   27717       1   27672   27657   27675   27696       1
   27672   27693  -27708   27696       1   27672   27693   27708   27717       1
   27672   27693   27711   27720       1   27669   27654   27666   27678       1
   27669   27687   27672   27693       1   27666   27654   27669   27687       1
   27657   27648   27651   27660       1   27657   27648   27654   27666       1
   27657   27648   27654   27669       1   27657   27672  -27687   27669       1
   27657   27672   27693   27708       1   27657   27672   27693   27711       1
   27657   27675  -27696   27708       1   27654   27648   27651   27660       1
   27654   27648   27657   27672       1   27654   27648   27657   27675       1
   27654   27666  -27678   27660       1   27654   27669  -27687   27672       1
   27651   27648   27654   27666       1   27651   27648   27654   27669       1
   27651   27648   27657   27672       1   27651   27648   27657   27675       1
   27651   27660  -27678   27666       1   27648   27651   27660   27678       1
   27648   27654  -27666   27678       1   27648   27654   27669   27687       1
   27648   27657  -27672   27687       1   27648   27657   27672   27693       1
   27648   27657   27675   27696       1   27837   27825   27834   27843       1
   27837   27846  -27852   27843       1   27834   27825   27837   27846       1
   27834   27843  -27852   27846       1   27828   27834   27825   27837       1
   27828   27834   27843   27852       1   27825   27834   27843   27852       1
   27825   27837  -27846   27852       1   27819   27801   27816   27825       1
   27819   27828  -27834   27825       1   27819   27828   27834   27843       1
   27816   27801   27819   27828       1   27816   27825  -27834   27828       1
   27816   27825   27834   27843       1   27816   27825   27837   27846       1
   27804   27816   27801   27819       1   27804   27816   27825   27834       1
   27804   27816   27825   27837       1   27801   27816   27825   27834       1
   27801   27816   27825   27837       1   27801   27819  -27828   27834       1
   27795   27780   27801   27816       1   27795   27780   27801   27819       1
   27783   27765   27780   27795       1   27783   27765   27780   27801       1
   27783   27804  -27816   27801       1   27783   27804   27816   27825       1
   27780   27765   27783   27804       1   27780   27801  -27816   27804       1
   27780   27801   27816   27825       1   27780   27801   27819   27828       1
   27777   27762   27774   27786       1   27777   27795   27780   27801       1
   27774   27762   27777   27795       1   27765   27756   27759   27768       1
   27765   27756   27762   27774       1   27765   27756   27762   27777       1
   27765   27780  -27795   27777       1   27765   27780   27801   27816       1
   27765   27780   27801   27819       1   27765   27783  -27804   27816       1
   27762   27756   27759   27768       1   27762   27756   27765   27780       1
   27762   27756   27765   27783       1   27762   27774  -27786   27768       1
   27762   27777  -27795   27780       1   27759   27756   27762   27774       1
   27759   27756   27762   27777       1   27759   27756   27765   27780       1
   27759   27756   27765   27783       1   27759   27768  -27786   27774       1
   27756   27759   27768   27786       1   27756   27762  -27774   27786       1
   27756   27762   27777   27795       1   27756   27765  -27780   27795       1
   27756   27765   27780   27801       1   27756   27765   27783   27804       1
   27945   27933   27942   27951       1   27945   27954  -27960   27951       1
   27942   27933   27945   27954       1   27942   27951  -27960   27954       1
   27936   27942   27933   27945       1   27936   27942   27951   27960       1
   27933   27942   27951   27960       1   27933   27945  -27954   27960       1
   27927   27909   27924   27933       1   27927   27936  -27942   27933       1
   27927   27936   27942   27951       1   27924   27909   27927   27936       1
   27924   27933  -27942   27936       1   27924   27933   27942   27951       1
   27924   27933   27945   27954       1   27912   27924   27909   27927       1
   27912   27924   27933   27942       1   27912   27924   27933   27945       1
   27909   27924   27933   27942       1   27909   27924   27933   27945       1
   27909   27927  -27936   27942       1   27903   27888   27909   27924       1
   27903   27888   27909   27927       1   27891   27873   27888   27903       1
   27891   27873   27888   27909       1   27891   27912  -27924   27909       1
   27891   27912   27924   27933       1   27888   27873   27891   27912       1
   27888   27909  -27924   27912       1   27888   27909   27924   27933       1
   27888   27909   27927   27936       1   27885   27870   27882   27894       1
   27885   27903   27888   27909       1   27882   27870   27885   27903       1
   27873   27864   27867   27876       1   27873   27864   27870   27882       1
   27873   27864   27870   27885       1   27873   27888  -27903   27885       1
   27873   27888   27909   27924       1   27873   27888   27909   27927       1
   27873   27891  -27912   27924       1   27870   27864   27867   27876       1
   27870   27864   27873   27888       1   27870   27864   27873   27891       1
   27870   27882  -27894   27876       1   27870   27885  -27903   27888       1
   27867   27864   27870   27882       1   27867   27864   27870   27885       1
   27867   27864   27873   27888       1   27867   27864   27873   27891       1
   27867   27876  -27894   27882       1   27864   27867   27876   27894       1
   27864   27870  -27882   27894       1   27864   27870   27885   27903       1
   27864   27873  -27888   27903       1   27864   27873   27888   27909       1
   27864   27873   27891   27912       1   28053   28041   28050   28059       1
   28053   28062  -28068   28059       1   28050   28041   28053   28062       1
   28050   28059  -28068   28062       1   28044   28050   28041   28053       1
   28044   28050   28059   28068       1   28041   28050   28059   28068       1
   28041   28053  -28062   28068       1   28035   28017   28032   28041       1
   28035   28044  -28050   28041       1   28035   28044   28050   28059       1
   28032   28017   28035   28044       1   28032   28041  -28050   28044       1
   28032   28041   28050   28059       1   28032   28041   28053   28062       1
   28020   28032   28017   28035       1   28020   28032   28041   28050       1
   28020   28032   28041   28053       1   28017   28032   28041   28050       1
   28017   28032   28041   28053       1   28017   28035  -28044   28050       1
   28011   27996   28017   28032       1   28011   27996   28017   28035       1
   27999   27981   27996   28011       1   27999   27981   27996   28017       1
   27999   28020  -28032   28017       1   27999   28020   28032   28041       1
   27996   27981   27999   28020       1   27996   28017  -28032   28020       1
   27996   28017   28032   28041       1   27996   28017   28035   28044       1
   27993   27978   27990   28002       1   27993   28011   27996   28017       1
   27990   27978   27993   28011       1   27981   27972   27975   27984       1
   27981   27972   27978   27990       1   27981   27972   27978   27993       1
   27981   27996  -28011   27993       1   27981   27996   28017   28032       1
   27981   27996   28017   28035       1   27981   27999  -28020   28032       1
   27978   27972   27975   27984       1   27978   27972   27981   27996       1
   27978   27972   27981   27999       1   27978   27990  -28002   27984       1
   27978   27993  -28011   27996       1   27975   27972   27978   27990       1
   27975   27972   27978   27993       1   27975   27972   27981   27996       1
   27975   27972   27981   27999       1   27975   27984  -28002   27990       1
   27972   27975   27984   28002       1   27972   27978  -27990   28002       1
   27972   27978   27993   28011       1   27972   27981  -27996   28011       1
   27972   27981   27996   28017       1   27972   27981   27999   28020       1
   28161   28149   28158   28167       1   28161   28170  -28176   28167       1
   28158   28149   28161   28170       1   28158   28167  -28176   28170       1
   28152   28158   28149   28161       1   28152   28158   28167   28176       1
   28149   28158   28167   28176       1   28149   28161  -28170   28176       1
   28143   28125   28140   28149       1   28143   28152  -28158   28149       1
   28143   28152   28158   28167       1   28140   28125   28143   28152       1
   28140   28149  -28158   28152       1   28140   28149   28158   28167       1
   28140   28149   28161   28170       1   28128   28140   28125   28143       1
   28128   28140   28149   28158       1   28128   28140   28149   28161       1
   28125   28140   28149   28158       1   28125   28140   28149   28161       1
   28125   28143  -28152   28158       1   28119   28104   28125   28140       1
   28119   28104   28125   28143       1   28107   28089   28104   28119       1
   28107   28089   28104   28125       1   28107   28128  -28140   28125       1
   28107   28128   28140   28149       1   28104   28089   28107   28128       1
   28104   28125  -28140   28128       1   28104   28125   28140   28149       1
   28104   28125   28143   28152       1   28101   28086   28098   28110       1
   28101   28119   28104   28125       1   28098   28086   28101   28119       1
   28089   28080   28083   28092       1   28089   28080   28086   28098       1
   28089   28080   28086   28101       1   28089   28104  -28119   28101       1
   28089   28104   28125   28140       1   28089   28104   28125   28143       1
   28089   28107  -28128   28140       1   28086   28080   28083   28092       1
   28086   28080   28089   28104       1   28086   28080   28089   28107       1
   28086   28098  -28110   28092       1   28086   28101  -28119   28104       1
   28083   28080   28086   28098       1   28083   28080   28086   28101       1
   28083   28080   28089   28104       1   28083   28080   28089   28107       1
   28083   28092  -28110   28098       1   28080   28083   28092   28110       1
   28080   28086  -28098   28110       1   28080   28086   28101   28119       1
   28080   28089  -28104   28119       1   28080   28089   28104   28125       1
   28080   28089   28107   28128       1   28269   28257   28266   28275       1
   28269   28278  -28284   28275       1   28266   28257   28269   28278       1
   28266   28275  -28284   28278       1   28260   28266   28257   28269       1
   28260   28266   28275   28284       1   28257   28266   28275   28284       1
   28257   28269  -28278   28284       1   28251   28233   28248   28257       1
   28251   28260  -28266   28257       1   28251   28260   28266   28275       1
   28248   28233   28251   28260       1   28248   28257  -28266   28260       1
   28248   28257   28266   28275       1   28248   28257   28269   28278       1
   28236   28248   28233   28251       1   28236   28248   28257   28266       1
   28236   28248   28257   28269       1   28233   28248   28257   28266       1
   28233   28248   28257   28269       1   28233   28251  -28260   28266       1
   28227   28212   28233   28248       1   28227   28212   28233   28251       1
   28215   28197   28212   28227       1   28215   28197   28212   28233       1
   28215   28236  -28248   28233       1   28215   28236   28248   28257       1
   28212   28197   28215   28236       1   28212   28233  -28248   28236       1
   28212   28233   28248   28257       1   28212   28233   28251   28260       1
   28209   28194   28206   28218       1   28209   28227   28212   28233       1
   28206   28194   28209   28227       1   28197   28188   28191   28200       1
   28197   28188   28194   28206       1   28197   28188   28194   28209       1
   28197   28212  -28227   28209       1   28197   28212   28233   28248       1
   28197   28212   28233   28251       1   28197   28215  -28236   28248       1
   28194   28188   28191   28200       1   28194   28188   28197   28212       1
   28194   28188   28197   28215       1   28194   28206  -28218   28200       1
   28194   28209  -28227   28212       1   28191   28188   28194   28206       1
   28191   28188   28194   28209       1   28191   28188   28197   28212       1
   28191   28188   28197   28215       1   28191   28200  -28218   28206       1
   28188   28191   28200   28218       1   28188   28194  -28206   28218       1
   28188   28194   28209   28227       1   28188   28197  -28212   28227       1
   28188   28197   28212   28233       1   28188   28197   28215   28236       1
   28377   28365   28374   28383       1   28377   28386  -28392   28383       1
   28374   28365   28377   28386       1   28374   28383  -28392   28386       1
   28368   28374   28365   28377       1   28368   28374   28383   28392       1
   28365   28374   28383   28392       1   28365   28377  -28386   28392       1
   28359   28341   28356   28365       1   28359   28368  -28374   28365       1
   28359   28368   28374   28383       1   28356   28341   28359   28368       1
   28356   28365  -28374   28368       1   28356   28365   28374   28383       1
   28356   28365   28377   28386       1   28344   28356   28341   28359       1
   28344   28356   28365   28374       1   28344   28356   28365   28377       1
   28341   28356   28365   28374       1   28341   28356   28365   28377       1
   28341   28359  -28368   28374       1   28335   28320   28341   28356       1
   28335   28320   28341   28359       1   28323   28305   28320   28335       1
   28323   28305   28320   28341       1   28323   28344  -28356   28341       1
   28323   28344   28356   28365       1   28320   28305   28323   28344       1
   28320   28341  -28356   28344       1   28320   28341   28356   28365       1
   28320   28341   28359   28368       1   28317   28302   28314   28326       1
   28317   28335   28320   28341       1   28314   28302   28317   28335       1
   28305   28296   28299   28308       1   28305   28296   28302   28314       1
   28305   28296   28302   28317       1   28305   28320  -28335   28317       1
   28305   28320   28341   28356       1   28305   28320   28341   28359       1
   28305   28323  -28344   28356       1   28302   28296   28299   28308       1
   28302   28296   28305   28320       1   28302   28296   28305   28323       1
   28302   28314  -28326   28308       1   28302   28317  -28335   28320       1
   28299   28296   28302   28314       1   28299   28296   28302   28317       1
   28299   28296   28305   28320       1   28299   28296   28305   28323       1
   28299   28308  -28326   28314       1   28296   28299   28308   28326       1
   28296   28302  -28314   28326       1   28296   28302   28317   28335       1
   28296   28305  -28320   28335       1   28296   28305   28320   28341       1
   28296   28305   28323   28344       1   28485   28473   28482   28491       1
   28485   28494  -28500   28491       1   28482   28473   28485   28494       1
   28482   28491  -28500   28494       1   28476   28482   28473   28485       1
   28476   28482   28491   28500       1   28473   28482   28491   28500       1
   28473   28485  -28494   28500       1   28467   28449   28464   28473       1
   28467   28476  -28482   28473       1   28467   28476   28482   28491       1
   28464   28449   28467   28476       1   28464   28473  -28482   28476       1
   28464   28473   28482   28491       1   28464   28473   28485   28494       1
   28452   28464   28449   28467       1   28452   28464   28473   28482       1
   28452   28464   28473   28485       1   28449   28464   28473   28482       1
   28449   28464   28473   28485       1   28449   28467  -28476   28482       1
   28443   28428   28449   28464       1   28443   28428   28449   28467       1
   28431   28413   28428   28443       1   28431   28413   28428   28449       1
   28431   28452  -28464   28449       1   28431   28452   28464   28473       1
   28428   28413   28431   28452       1   28428   28449  -28464   28452       1
   28428   28449   28464   28473       1   28428   28449   28467   28476       1
   28425   28410   28422   28434       1   28425   28443   28428   28449       1
   28422   28410   28425   28443       1   28413   28404   28407   28416       1
   28413   28404   28410   28422       1   28413   28404   28410   28425       1
   28413   28428  -28443   28425       1   28413   28428   28449   28464       1
   28413   28428   28449   28467       1   28413   28431  -28452   28464       1
   28410   28404   28407   28416       1   28410   28404   28413   28428       1
   28410   28404   28413   28431       1   28410   28422  -28434   28416       1
   28410   28425  -28443   28428       1   28407   28404   28410   28422       1
   28407   28404   28410   28425       1   28407   28404   28413   28428       1
   28407   28404   28413   28431       1   28407   28416  -28434   28422       1
   28404   28407   28416   28434       1   28404   28410  -28422   28434       1
   28404   28410   28425   28443       1   28404   28413  -28428   28443       1
   28404   28413   28428   28449       1   28404   28413   28431   28452       1
   28593   28581   28590   28599       1   28593   28602  -28608   28599       1
   28590   28581   28593   28602       1   28590   28599  -28608   28602       1
   28584   28590   28581   28593       1   28584   28590   28599   28608       1
   28581   28590   28599   28608       1   28581   28593  -28602   28608       1
   28575   28557   28572   28581       1   28575   28584  -28590   28581       1
   28575   28584   28590   28599       1   28572   28557   28575   28584       1
   28572   28581  -28590   28584       1   28572   28581   28590   28599       1
   28572   28581   28593   28602       1   28560   28572   28557   28575       1
   28560   28572   28581   28590       1   28560   28572   28581   28593       1
   28557   28572   28581   28590       1   28557   28572   28581   28593       1
   28557   28575  -28584   28590       1   28551   28536   28557   28572       1
   28551   28536   28557   28575       1   28539   28521   28536   28551       1
   28539   28521   28536   28557       1   28539   28560  -28572   28557       1
   28539   28560   28572   28581       1   28536   28521   28539   28560       1
   28536   28557  -28572   28560       1   28536   28557   28572   28581       1
   28536   28557   28575   28584       1   28533   28518   28530   28542       1
   28533   28551   28536   28557       1   28530   28518   28533   28551       1
   28521   28512   28515   28524       1   28521   28512   28518   28530       1
   28521   28512   28518   28533       1   28521   28536  -28551   28533       1
   28521   28536   28557   28572       1   28521   28536   28557   28575       1
   28521   28539  -28560   28572       1   28518   28512   28515   28524       1
   28518   28512   28521   28536       1   28518   28512   28521   28539       1
   28518   28530  -28542   28524       1   28518   28533  -28551   28536       1
   28515   28512   28518   28530       1   28515   28512   28518   28533       1
   28515   28512   28521   28536       1   28515   28512   28521   28539       1
   28515   28524  -28542   28530       1   28512   28515   28524   28542       1
   28512   28518  -28530   28542       1   28512   28518   28533   28551       1
   28512   28521  -28536   28551       1   28512   28521   28536   28557       1
   28512   28521   28539   28560       1   28701   28689   28698   28707       1
   28701   28710  -28716   28707       1   28698   28689   28701   28710       1
   28698   28707  -28716   28710       1   28692   28698   28689   28701       1
   28692   28698   28707   28716       1   28689   28698   28707   28716       1
   28689   28701  -28710   28716       1   28683   28665   28680   28689       1
   28683   28692  -28698   28689       1   28683   28692   28698   28707       1
   28680   28665   28683   28692       1   28680   28689  -28698   28692       1
   28680   28689   28698   28707       1   28680   28689   28701   28710       1
   28668   28680   28665   28683       1   28668   28680   28689   28698       1
   28668   28680   28689   28701       1   28665   28680   28689   28698       1
   28665   28680   28689   28701       1   28665   28683  -28692   28698       1
   28659   28644   28665   28680       1   28659   28644   28665   28683       1
   28647   28629   28644   28659       1   28647   28629   28644   28665       1
   28647   28668  -28680   28665       1   28647   28668   28680   28689       1
   28644   28629   28647   28668       1   28644   28665  -28680   28668       1
   28644   28665   28680   28689       1   28644   28665   28683   28692       1
   28641   28626   28638   28650       1   28641   28659   28644   28665       1
   28638   28626   28641   28659       1   28629   28620   28623   28632       1
   28629   28620   28626   28638       1   28629   28620   28626   28641       1
   28629   28644  -28659   28641       1   28629   28644   28665   28680       1
   28629   28644   28665   28683       1   28629   28647  -28668   28680       1
   28626   28620   28623   28632       1   28626   28620   28629   28644       1
   28626   28620   28629   28647       1   28626   28638  -28650   28632       1
   28626   28641  -28659   28644       1   28623   28620   28626   28638       1
   28623   28620   28626   28641       1   28623   28620   28629   28644       1
   28623   28620   28629   28647       1   28623   28632  -28650   28638       1
   28620   28623   28632   28650       1   28620   28626  -28638   28650       1
   28620   28626   28641   28659       1   28620   28629  -28644   28659       1
   28620   28629   28644   28665       1   28620   28629   28647   28668       1
   28809   28797   28806   28815       1   28809   28818  -28824   28815       1
   28806   28797   28809   28818       1   28806   28815  -28824   28818       1
   28800   28806   28797   28809       1   28800   28806   28815   28824       1
   28797   28806   28815   28824       1   28797   28809  -28818   28824       1
   28791   28773   28788   28797       1   28791   28800  -28806   28797       1
   28791   28800   28806   28815       1   28788   28773   28791   28800       1
   28788   28797  -28806   28800       1   28788   28797   28806   28815       1
   28788   28797   28809   28818       1   28776   28788   28773   28791       1
   28776   28788   28797   28806       1   28776   28788   28797   28809       1
   28773   28788   28797   28806       1   28773   28788   28797   28809       1
   28773   28791  -28800   28806       1   28767   28752   28773   28788       1
   28767   28752   28773   28791       1   28755   28737   28752   28767       1
   28755   28737   28752   28773       1   28755   28776  -28788   28773       1
   28755   28776   28788   28797       1   28752   28737   28755   28776       1
   28752   28773  -28788   28776       1   28752   28773   28788   28797       1
   28752   28773   28791   28800       1   28749   28734   28746   28758       1
   28749   28767   28752   28773       1   28746   28734   28749   28767       1
   28737   28728   28731   28740       1   28737   28728   28734   28746       1
   28737   28728   28734   28749       1   28737   28752  -28767   28749       1
   28737   28752   28773   28788       1   28737   28752   28773   28791       1
   28737   28755  -28776   28788       1   28734   28728   28731   28740       1
   28734   28728   28737   28752       1   28734   28728   28737   28755       1
   28734   28746  -28758   28740       1   28734   28749  -28767   28752       1
   28731   28728   28734   28746       1   28731   28728   28734   28749       1
   28731   28728   28737   28752       1   28731   28728   28737   28755       1
   28731   28740  -28758   28746       1   28728   28731   28740   28758       1
   28728   28734  -28746   28758       1   28728   28734   28749   28767       1
   28728   28737  -28752   28767       1   28728   28737   28752   28773       1
   28728   28737   28755   28776       1   28917   28905   28914   28923       1
   28917   28926  -28932   28923       1   28914   28905   28917   28926       1
   28914   28923  -28932   28926       1   28908   28914   28905   28917       1
   28908   28914   28923   28932       1   28905   28914   28923   28932       1
   28905   28917  -28926   28932       1   28899   28881   28896   28905       1
   28899   28908  -28914   28905       1   28899   28908   28914   28923       1
   28896   28881   28899   28908       1   28896   28905  -28914   28908       1
   28896   28905   28914   28923       1   28896   28905   28917   28926       1
   28884   28896   28881   28899       1   28884   28896   28905   28914       1
   28884   28896   28905   28917       1   28881   28896   28905   28914       1
   28881   28896   28905   28917       1   28881   28899  -28908   28914       1
   28875   28860   28881   28896       1   28875   28860   28881   28899       1
   28863   28845   28860   28875       1   28863   28845   28860   28881       1
   28863   28884  -28896   28881       1   28863   28884   28896   28905       1
   28860   28845   28863   28884       1   28860   28881  -28896   28884       1
   28860   28881   28896   28905       1   28860   28881   28899   28908       1
   28857   28842   28854   28866       1   28857   28875   28860   28881       1
   28854   28842   28857   28875       1   28845   28836   28839   28848       1
   28845   28836   28842   28854       1   28845   28836   28842   28857       1
   28845   28860  -28875   28857       1   28845   28860   28881   28896       1
   28845   28860   28881   28899       1   28845   28863  -28884   28896       1
   28842   28836   28839   28848       1   28842   28836   28845   28860       1
   28842   28836   28845   28863       1   28842   28854  -28866   28848       1
   28842   28857  -28875   28860       1   28839   28836   28842   28854       1
   28839   28836   28842   28857       1   28839   28836   28845   28860       1
   28839   28836   28845   28863       1   28839   28848  -28866   28854       1
   28836   28839   28848   28866       1   28836   28842  -28854   28866       1
   28836   28842   28857   28875       1   28836   28845  -28860   28875       1
   28836   28845   28860   28881       1   28836   28845   28863   28884       1
   29025   29013   29022   29031       1   29025   29034  -29040   29031       1
   29022   29013   29025   29034       1   29022   29031  -29040   29034       1
   29016   29022   29013   29025       1   29016   29022   29031   29040       1
   29013   29022   29031   29040       1   29013   29025  -29034   29040       1
   29007   28989   29004   29013       1   29007   29016  -29022   29013       1
   29007   29016   29022   29031       1   29004   28989   29007   29016       1
   29004   29013  -29022   29016       1   29004   29013   29022   29031       1
   29004   29013   29025   29034       1   28992   29004   28989   29007       1
   28992   29004   29013   29022       1   28992   29004   29013   29025       1
   28989   29004   29013   29022       1   28989   29004   29013   29025       1
   28989   29007  -29016   29022       1   28983   28968   28989   29004       1
   28983   28968   28989   29007       1   28971   28953   28968   28983       1
   28971   28953   28968   28989       1   28971   28992  -29004   28989       1
   28971   28992   29004   29013       1   28968   28953   28971   28992       1
   28968   28989  -29004   28992       1   28968   28989   29004   29013       1
   28968   28989   29007   29016       1   28965   28950   28962   28974       1
   28965   28983   28968   28989       1   28962   28950   28965   28983       1
   28953   28944   28947   28956       1   28953   28944   28950   28962       1
   28953   28944   28950   28965       1   28953   28968  -28983   28965       1
   28953   28968   28989   29004       1   28953   28968   28989   29007       1
   28953   28971  -28992   29004       1   28950   28944   28947   28956       1
   28950   28944   28953   28968       1   28950   28944   28953   28971       1
   28950   28962  -28974   28956       1   28950   28965  -28983   28968       1
   28947   28944   28950   28962       1   28947   28944   28950   28965       1
   28947   28944   28953   28968       1   28947   28944   28953   28971       1
   28947   28956  -28974   28962       1   28944   28947   28956   28974       1
   28944   28950  -28962   28974       1   28944   28950   28965   28983       1
   28944   28953  -28968   28983       1   28944   28953   28968   28989       1
   28944   28953   28971   28992       1   29133   29121   29130   29139       1
   29133   29142  -29148   29139       1   29130   29121   29133   29142       1
   29130   29139  -29148   29142       1   29124   29130   29121   29133       1
   29124   29130   29139   29148       1   29121   29130   29139   29148       1
   29121   29133  -29142   29148       1   29115   29097   29112   29121       1
   29115   29124  -29130   29121       1   29115   29124   29130   29139       1
   29112   29097   29115   29124       1   29112   29121  -29130   29124       1
   29112   29121   29130   29139       1   29112   29121   29133   29142       1
   29100   29112   29097   29115       1   29100   29112   29121   29130       1
   29100   29112   29121   29133       1   29097   29112   29121   29130       1
   29097   29112   29121   29133       1   29097   29115  -29124   29130       1
   29091   29076   29097   29112       1   29091   29076   29097   29115       1
   29079   29061   29076   29091       1   29079   29061   29076   29097       1
   29079   29100  -29112   29097       1   29079   29100   29112   29121       1
   29076   29061   29079   29100       1   29076   29097  -29112   29100       1
   29076   29097   29112   29121       1   29076   29097   29115   29124       1
   29073   29058   29070   29082       1   29073   29091   29076   29097       1
   29070   29058   29073   29091       1   29061   29052   29055   29064       1
   29061   29052   29058   29070       1   29061   29052   29058   29073       1
   29061   29076  -29091   29073       1   29061   29076   29097   29112       1
   29061   29076   29097   29115       1   29061   29079  -29100   29112       1
   29058   29052   29055   29064       1   29058   29052   29061   29076       1
   29058   29052   29061   29079       1   29058   29070  -29082   29064       1
   29058   29073  -29091   29076       1   29055   29052   29058   29070       1
   29055   29052   29058   29073       1   29055   29052   29061   29076       1
   29055   29052   29061   29079       1   29055   29064  -29082   29070       1
   29052   29055   29064   29082       1   29052   29058  -29070   29082       1
   29052   29058   29073   29091       1   29052   29061  -29076   29091       1
   29052   29061   29076   29097       1   29052   29061   29079   29100       1
   29241   29229   29238   29247       1   29241   29250  -29256   29247       1
   29238   29229   29241   29250       1   29238   29247  -29256   29250       1
   29232   29238   29229   29241       1   29232   29238   29247   29256       1
   29229   29238   29247   29256       1   29229   29241  -29250   29256       1
   29223   29205   29220   29229       1   29223   29232  -29238   29229       1
   29223   29232   29238   29247       1   29220   29205   29223   29232       1
   29220   29229  -29238   29232       1   29220   29229   29238   29247       1
   29220   29229   29241   29250       1   29208   29220   29205   29223       1
   29208   29220   29229   29238       1   29208   29220   29229   29241       1
   29205   29220   29229   29238       1   29205   29220   29229   29241       1
   29205   29223  -29232   29238       1   29199   29184   29205   29220       1
   29199   29184   29205   29223       1   29187   29169   29184   29199       1
   29187   29169   29184   29205       1   29187   29208  -29220   29205       1
   29187   29208   29220   29229       1   29184   29169   29187   29208       1
   29184   29205  -29220   29208       1   29184   29205   29220   29229       1
   29184   29205   29223   29232       1   29181   29166   29178   29190       1
   29181   29199   29184   29205       1   29178   29166   29181   29199       1
   29169   29160   29163   29172       1   29169   29160   29166   29178       1
   29169   29160   29166   29181       1   29169   29184  -29199   29181       1
   29169   29184   29205   29220       1   29169   29184   29205   29223       1
   29169   29187  -29208   29220       1   29166   29160   29163   29172       1
   29166   29160   29169   29184       1   29166   29160   29169   29187       1
   29166   29178  -29190   29172       1   29166   29181  -29199   29184       1
   29163   29160   29166   29178       1   29163   29160   29166   29181       1
   29163   29160   29169   29184       1   29163   29160   29169   29187       1
   29163   29172  -29190   29178       1   29160   29163   29172   29190       1
   29160   29166  -29178   29190       1   29160   29166   29181   29199       1
   29160   29169  -29184   29199       1   29160   29169   29184   29205       1
   29160   29169   29187   29208       1   29349   29337   29346   29355       1
   29349   29358  -29364   29355       1   29346   29337   29349   29358       1
   29346   29355  -29364   29358       1   29340   29346   29337   29349       1
   29340   29346   29355   29364       1   29337   29346   29355   29364       1
   29337   29349  -29358   29364       1   29331   29313   29328   29337       1
   29331   29340  -29346   29337       1   29331   29340   29346   29355       1
   29328   29313   29331   29340       1   29328   29337  -29346   29340       1
   29328   29337   29346   29355       1   29328   29337   29349   29358       1
   29316   29328   29313   29331       1   29316   29328   29337   29346       1
   29316   29328   29337   29349       1   29313   29328   29337   29346       1
   29313   29328   29337   29349       1   29313   29331  -29340   29346       1
   29307   29292   29313   29328       1   29307   29292   29313   29331       1
   29295   29277   29292   29307       1   29295   29277   29292   29313       1
   29295   29316  -29328   29313       1   29295   29316   29328   29337       1
   29292   29277   29295   29316       1   29292   29313  -29328   29316       1
   29292   29313   29328   29337       1   29292   29313   29331   29340       1
   29289   29274   29286   29298       1   29289   29307   29292   29313       1
   29286   29274   29289   29307       1   29277   29268   29271   29280       1
   29277   29268   29274   29286       1   29277   29268   29274   29289       1
   29277   29292  -29307   29289       1   29277   29292   29313   29328       1
   29277   29292   29313   29331       1   29277   29295  -29316   29328       1
   29274   29268   29271   29280       1   29274   29268   29277   29292       1
   29274   29268   29277   29295       1   29274   29286  -29298   29280       1
   29274   29289  -29307   29292       1   29271   29268   29274   29286       1
   29271   29268   29274   29289       1   29271   29268   29277   29292       1
   29271   29268   29277   29295       1   29271   29280  -29298   29286       1
   29268   29271   29280   29298       1   29268   29274  -29286   29298       1
   29268   29274   29289   29307       1   29268   29277  -29292   29307       1
   29268   29277   29292   29313       1   29268   29277   29295   29316       1
   29457   29445   29454   29463       1   29457   29466  -29472   29463       1
   29454   29445   29457   29466       1   29454   29463  -29472   29466       1
   29448   29454   29445   29457       1   29448   29454   29463   29472       1
   29445   29454   29463   29472       1   29445   29457  -29466   29472       1
   29439   29421   29436   29445       1   29439   29448  -29454   29445       1
   29439   29448   29454   29463       1   29436   29421   29439   29448       1
   29436   29445  -29454   29448       1   29436   29445   29454   29463       1
   29436   29445   29457   29466       1   29424   29436   29421   29439       1
   29424   29436   29445   29454       1   29424   29436   29445   29457       1
   29421   29436   29445   29454       1   29421   29436   29445   29457       1
   29421   29439  -29448   29454       1   29415   29400   29421   29436       1
   29415   29400   29421   29439       1   29403   29385   29400   29415       1
   29403   29385   29400   29421       1   29403   29424  -29436   29421       1
   29403   29424   29436   29445       1   29400   29385   29403   29424       1
   29400   29421  -29436   29424       1   29400   29421   29436   29445       1
   29400   29421   29439   29448       1   29397   29382   29394   29406       1
   29397   29415   29400   29421       1   29394   29382   29397   29415       1
   29385   29376   29379   29388       1   29385   29376   29382   29394       1
   29385   29376   29382   29397       1   29385   29400  -29415   29397       1
   29385   29400   29421   29436       1   29385   29400   29421   29439       1
   29385   29403  -29424   29436       1   29382   29376   29379   29388       1
   29382   29376   29385   29400       1   29382   29376   29385   29403       1
   29382   29394  -29406   29388       1   29382   29397  -29415   29400       1
   29379   29376   29382   29394       1   29379   29376   29382   29397       1
   29379   29376   29385   29400       1   29379   29376   29385   29403       1
   29379   29388  -29406   29394       1   29376   29379   29388   29406       1
   29376   29382  -29394   29406       1   29376   29382   29397   29415       1
   29376   29385  -29400   29415       1   29376   29385   29400   29421       1
   29376   29385   29403   29424       1   29565   29553   29562   29571       1
   29565   29574  -29580   29571       1   29562   29553   29565   29574       1
   29562   29571  -29580   29574       1   29556   29562   29553   29565       1
   29556   29562   29571   29580       1   29553   29562   29571   29580       1
   29553   29565  -29574   29580       1   29547   29529   29544   29553       1
   29547   29556  -29562   29553       1   29547   29556   29562   29571       1
   29544   29529   29547   29556       1   29544   29553  -29562   29556       1
   29544   29553   29562   29571       1   29544   29553   29565   29574       1
   29532   29544   29529   29547       1   29532   29544   29553   29562       1
   29532   29544   29553   29565       1   29529   29544   29553   29562       1
   29529   29544   29553   29565       1   29529   29547  -29556   29562       1
   29523   29508   29529   29544       1   29523   29508   29529   29547       1
   29511   29493   29508   29523       1   29511   29493   29508   29529       1
   29511   29532  -29544   29529       1   29511   29532   29544   29553       1
   29508   29493   29511   29532       1   29508   29529  -29544   29532       1
   29508   29529   29544   29553       1   29508   29529   29547   29556       1
   29505   29490   29502   29514       1   29505   29523   29508   29529       1
   29502   29490   29505   29523       1   29493   29484   29487   29496       1
   29493   29484   29490   29502       1   29493   29484   29490   29505       1
   29493   29508  -29523   29505       1   29493   29508   29529   29544       1
   29493   29508   29529   29547       1   29493   29511  -29532   29544       1
   29490   29484   29487   29496       1   29490   29484   29493   29508       1
   29490   29484   29493   29511       1   29490   29502  -29514   29496       1
   29490   29505  -29523   29508       1   29487   29484   29490   29502       1
   29487   29484   29490   29505       1   29487   29484   29493   29508       1
   29487   29484   29493   29511       1   29487   29496  -29514   29502       1
   29484   29487   29496   29514       1   29484   29490  -29502   29514       1
   29484   29490   29505   29523       1   29484   29493  -29508   29523       1
   29484   29493   29508   29529       1   29484   29493   29511   29532       1
   29673   29661   29670   29679       1   29673   29682  -29688   29679       1
   29670   29661   29673   29682       1   29670   29679  -29688   29682       1
   29664   29670   29661   29673       1   29664   29670   29679   29688       1
   29661   29670   29679   29688       1   29661   29673  -29682   29688       1
   29655   29637   29652   29661       1   29655   29664  -29670   29661       1
   29655   29664   29670   29679       1   29652   29637   29655   29664       1
   29652   29661  -29670   29664       1   29652   29661   29670   29679       1
   29652   29661   29673   29682       1   29640   29652   29637   29655       1
   29640   29652   29661   29670       1   29640   29652   29661   29673       1
   29637   29652   29661   29670       1   29637   29652   29661   29673       1
   29637   29655  -29664   29670       1   29631   29616   29637   29652       1
   29631   29616   29637   29655       1   29619   29601   29616   29631       1
   29619   29601   29616   29637       1   29619   29640  -29652   29637       1
   29619   29640   29652   29661       1   29616   29601   29619   29640       1
   29616   29637  -29652   29640       1   29616   29637   29652   29661       1
   29616   29637   29655   29664       1   29613   29598   29610   29622       1
   29613   29631   29616   29637       1   29610   29598   29613   29631       1
   29601   29592   29595   29604       1   29601   29592   29598   29610       1
   29601   29592   29598   29613       1   29601   29616  -29631   29613       1
   29601   29616   29637   29652       1   29601   29616   29637   29655       1
   29601   29619  -29640   29652       1   29598   29592   29595   29604       1
   29598   29592   29601   29616       1   29598   29592   29601   29619       1
   29598   29610  -29622   29604       1   29598   29613  -29631   29616       1
   29595   29592   29598   29610       1   29595   29592   29598   29613       1
   29595   29592   29601   29616       1   29595   29592   29601   29619       1
   29595   29604  -29622   29610       1   29592   29595   29604   29622       1
   29592   29598  -29610   29622       1   29592   29598   29613   29631       1
   29592   29601  -29616   29631       1   29592   29601   29616   29637       1
   29592   29601   29619   29640       1   29781   29769   29778   29787       1
   29781   29790  -29796   29787       1   29778   29769   29781   29790       1
   29778   29787  -29796   29790       1   29772   29778   29769   29781       1
   29772   29778   29787   29796       1   29769   29778   29787   29796       1
   29769   29781  -29790   29796       1   29763   29745   29760   29769       1
   29763   29772  -29778   29769       1   29763   29772   29778   29787       1
   29760   29745   29763   29772       1   29760   29769  -29778   29772       1
   29760   29769   29778   29787       1   29760   29769   29781   29790       1
   29748   29760   29745   29763       1   29748   29760   29769   29778       1
   29748   29760   29769   29781       1   29745   29760   29769   29778       1
   29745   29760   29769   29781       1   29745   29763  -29772   29778       1
   29739   29724   29745   29760       1   29739   29724   29745   29763       1
   29727   29709   29724   29739       1   29727   29709   29724   29745       1
   29727   29748  -29760   29745       1   29727   29748   29760   29769       1
   29724   29709   29727   29748       1   29724   29745  -29760   29748       1
   29724   29745   29760   29769       1   29724   29745   29763   29772       1
   29721   29706   29718   29730       1   29721   29739   29724   29745       1
   29718   29706   29721   29739       1   29709   29700   29703   29712       1
   29709   29700   29706   29718       1   29709   29700   29706   29721       1
   29709   29724  -29739   29721       1   29709   29724   29745   29760       1
   29709   29724   29745   29763       1   29709   29727  -29748   29760       1
   29706   29700   29703   29712       1   29706   29700   29709   29724       1
   29706   29700   29709   29727       1   29706   29718  -29730   29712       1
   29706   29721  -29739   29724       1   29703   29700   29706   29718       1
   29703   29700   29706   29721       1   29703   29700   29709   29724       1
   29703   29700   29709   29727       1   29703   29712  -29730   29718       1
   29700   29703   29712   29730       1   29700   29706  -29718   29730       1
   29700   29706   29721   29739       1   29700   29709  -29724   29739       1
   29700   29709   29724   29745       1   29700   29709   29727   29748       1
   29889   29877   29886   29895       1   29889   29898  -29904   29895       1
   29886   29877   29889   29898       1   29886   29895  -29904   29898       1
   29880   29886   29877   29889       1   29880   29886   29895   29904       1
   29877   29886   29895   29904       1   29877   29889  -29898   29904       1
   29871   29853   29868   29877       1   29871   29880  -29886   29877       1
   29871   29880   29886   29895       1   29868   29853   29871   29880       1
   29868   29877  -29886   29880       1   29868   29877   29886   29895       1
   29868   29877   29889   29898       1   29856   29868   29853   29871       1
   29856   29868   29877   29886       1   29856   29868   29877   29889       1
   29853   29868   29877   29886       1   29853   29868   29877   29889       1
   29853   29871  -29880   29886       1   29847   29832   29853   29868       1
   29847   29832   29853   29871       1   29835   29817   29832   29847       1
   29835   29817   29832   29853       1   29835   29856  -29868   29853       1
   29835   29856   29868   29877       1   29832   29817   29835   29856       1
   29832   29853  -29868   29856       1   29832   29853   29868   29877       1
   29832   29853   29871   29880       1   29829   29814   29826   29838       1
   29829   29847   29832   29853       1   29826   29814   29829   29847       1
   29817   29808   29811   29820       1   29817   29808   29814   29826       1
   29817   29808   29814   29829       1   29817   29832  -29847   29829       1
   29817   29832   29853   29868       1   29817   29832   29853   29871       1
   29817   29835  -29856   29868       1   29814   29808   29811   29820       1
   29814   29808   29817   29832       1   29814   29808   29817   29835       1
   29814   29826  -29838   29820       1   29814   29829  -29847   29832       1
   29811   29808   29814   29826       1   29811   29808   29814   29829       1
   29811   29808   29817   29832       1   29811   29808   29817   29835       1
   29811   29820  -29838   29826       1   29808   29811   29820   29838       1
   29808   29814  -29826   29838       1   29808   29814   29829   29847       1
   29808   29817  -29832   29847       1   29808   29817   29832   29853       1
   29808   29817   29835   29856       1   29997   29985   29994   30003       1
   29997   30006  -30012   30003       1   29994   29985   29997   30006       1
   29994   30003  -30012   30006       1   29988   29994   29985   29997       1
   29988   29994   30003   30012       1   29985   29994   30003   30012       1
   29985   29997  -30006   30012       1   29979   29961   29976   29985       1
   29979   29988  -29994   29985       1   29979   29988   29994   30003       1
   29976   29961   29979   29988       1   29976   29985  -29994   29988       1
   29976   29985   29994   30003       1   29976   29985   29997   30006       1
   29964   29976   29961   29979       1   29964   29976   29985   29994       1
   29964   29976   29985   29997       1   29961   29976   29985   29994       1
   29961   29976   29985   29997       1   29961   29979  -29988   29994       1
   29955   29940   29961   29976       1   29955   29940   29961   29979       1
   29943   29925   29940   29955       1   29943   29925   29940   29961       1
   29943   29964  -29976   29961       1   29943   29964   29976   29985       1
   29940   29925   29943   29964       1   29940   29961  -29976   29964       1
   29940   29961   29976   29985       1   29940   29961   29979   29988       1
   29937   29922   29934   29946       1   29937   29955   29940   29961       1
   29934   29922   29937   29955       1   29925   29916   29919   29928       1
   29925   29916   29922   29934       1   29925   29916   29922   29937       1
   29925   29940  -29955   29937       1   29925   29940   29961   29976       1
   29925   29940   29961   29979       1   29925   29943  -29964   29976       1
   29922   29916   29919   29928       1   29922   29916   29925   29940       1
   29922   29916   29925   29943       1   29922   29934  -29946   29928       1
   29922   29937  -29955   29940       1   29919   29916   29922   29934       1
   29919   29916   29922   29937       1   29919   29916   29925   29940       1
   29919   29916   29925   29943       1   29919   29928  -29946   29934       1
   29916   29919   29928   29946       1   29916   29922  -29934   29946       1
   29916   29922   29937   29955       1   29916   29925  -29940   29955       1
   29916   29925   29940   29961       1   29916   29925   29943   29964       1
   30105   30093   30102   30111       1   30105   30114  -30120   30111       1
   30102   30093   30105   30114       1   30102   30111  -30120   30114       1
   30096   30102   30093   30105       1   30096   30102   30111   30120       1
   30093   30102   30111   30120       1   30093   30105  -30114   30120       1
   30087   30069   30084   30093       1   30087   30096  -30102   30093       1
   30087   30096   30102   30111       1   30084   30069   30087   30096       1
   30084   30093  -30102   30096       1   30084   30093   30102   30111       1
   30084   30093   30105   30114       1   30072   30084   30069   30087       1
   30072   30084   30093   30102       1   30072   30084   30093   30105       1
   30069   30084   30093   30102       1   30069   30084   30093   30105       1
   30069   30087  -30096   30102       1   30063   30048   30069   30084       1
   30063   30048   30069   30087       1   30051   30033   30048   30063       1
   30051   30033   30048   30069       1   30051   30072  -30084   30069       1
   30051   30072   30084   30093       1   30048   30033   30051   30072       1
   30048   30069  -30084   30072       1   30048   30069   30084   30093       1
   30048   30069   30087   30096       1   30045   30030   30042   30054       1
   30045   30063   30048   30069       1   30042   30030   30045   30063       1
   30033   30024   30027   30036       1   30033   30024   30030   30042       1
   30033   30024   30030   30045       1   30033   30048  -30063   30045       1
   30033   30048   30069   30084       1   30033   30048   30069   30087       1
   30033   30051  -30072   30084       1   30030   30024   30027   30036       1
   30030   30024   30033   30048       1   30030   30024   30033   30051       1
   30030   30042  -30054   30036       1   30030   30045  -30063   30048       1
   30027   30024   30030   30042       1   30027   30024   30030   30045       1
   30027   30024   30033   30048       1   30027   30024   30033   30051       1
   30027   30036  -30054   30042       1   30024   30027   30036   30054       1
   30024   30030  -30042   30054       1   30024   30030   30045   30063       1
   30024   30033  -30048   30063       1   30024   30033   30048   30069       1
   30024   30033   30051   30072       1   30213   30201   30210   30219       1
   30213   30222  -30228   30219       1   30210   30201   30213   30222       1
   30210   30219  -30228   30222       1   30204   30210   30201   30213       1
   30204   30210   30219   30228       1   30201   30210   30219   30228       1
   30201   30213  -30222   30228       1   30195   30177   30192   30201       1
   30195   30204  -30210   30201       1   30195   30204   30210   30219       1
   30192   30177   30195   30204       1   30192   30201  -30210   30204       1
   30192   30201   30210   30219       1   30192   30201   30213   30222       1
   30180   30192   30177   30195       1   30180   30192   30201   30210       1
   30180   30192   30201   30213       1   30177   30192   30201   30210       1
   30177   30192   30201   30213       1   30177   30195  -30204   30210       1
   30171   30156   30177   30192       1   30171   30156   30177   30195       1
   30159   30141   30156   30171       1   30159   30141   30156   30177       1
   30159   30180  -30192   30177       1   30159   30180   30192   30201       1
   30156   30141   30159   30180       1   30156   30177  -30192   30180       1
   30156   30177   30192   30201       1   30156   30177   30195   30204       1
   30153   30138   30150   30162       1   30153   30171   30156   30177       1
   30150   30138   30153   30171       1   30141   30132   30135   30144       1
   30141   30132   30138   30150       1   30141   30132   30138   30153       1
   30141   30156  -30171   30153       1   30141   30156   30177   30192       1
   30141   30156   30177   30195       1   30141   30159  -30180   30192       1
   30138   30132   30135   30144       1   30138   30132   30141   30156       1
   30138   30132   30141   30159       1   30138   30150  -30162   30144       1
   30138   30153  -30171   30156       1   30135   30132   30138   30150       1
   30135   30132   30138   30153       1   30135   30132   30141   30156       1
   30135   30132   30141   30159       1   30135   30144  -30162   30150       1
   30132   30135   30144   30162       1   30132   30138  -30150   30162       1
   30132   30138   30153   30171       1   30132   30141  -30156   30171       1
   30132   30141   30156   30177       1   30132   30141   30159   30180       1
   30321   30309   30318   30327       1   30321   30330  -30336   30327       1
   30318   30309   30321   30330       1   30318   30327  -30336   30330       1
   30312   30318   30309   30321       1   30312   30318   30327   30336       1
   30309   30318   30327   30336       1   30309   30321  -30330   30336       1
   30303   30285   30300   30309       1   30303   30312  -30318   30309       1
   30303   30312   30318   30327       1   30300   30285   30303   30312       1
   30300   30309  -30318   30312       1   30300   30309   30318   30327       1
   30300   30309   30321   30330       1   30288   30300   30285   30303       1
   30288   30300   30309   30318       1   30288   30300   30309   30321       1
   30285   30300   30309   30318       1   30285   30300   30309   30321       1
   30285   30303  -30312   30318       1   30279   30264   30285   30300       1
   30279   30264   30285   30303       1   30267   30249   30264   30279       1
   30267   30249   30264   30285       1   30267   30288  -30300   30285       1
   30267   30288   30300   30309       1   30264   30249   30267   30288       1
   30264   30285  -30300   30288       1   30264   30285   30300   30309       1
   30264   30285   30303   30312       1   30261   30246   30258   30270       1
   30261   30279   30264   30285       1   30258   30246   30261   30279       1
   30249   30240   30243   30252       1   30249   30240   30246   30258       1
   30249   30240   30246   30261       1   30249   30264  -30279   30261       1
   30249   30264   30285   30300       1   30249   30264   30285   30303       1
   30249   30267  -30288   30300       1   30246   30240   30243   30252       1
   30246   30240   30249   30264       1   30246   30240   30249   30267       1
   30246   30258  -30270   30252       1   30246   30261  -30279   30264       1
   30243   30240   30246   30258       1   30243   30240   30246   30261       1
   30243   30240   30249   30264       1   30243   30240   30249   30267       1
   30243   30252  -30270   30258       1   30240   30243   30252   30270       1
   30240   30246  -30258   30270       1   30240   30246   30261   30279       1
   30240   30249  -30264   30279       1   30240   30249   30264   30285       1
   30240   30249   30267   30288       1   30429   30417   30426   30435       1
   30429   30438  -30444   30435       1   30426   30417   30429   30438       1
   30426   30435  -30444   30438       1   30420   30426   30417   30429       1
   30420   30426   30435   30444       1   30417   30426   30435   30444       1
   30417   30429  -30438   30444       1   30411   30393   30408   30417       1
   30411   30420  -30426   30417       1   30411   30420   30426   30435       1
   30408   30393   30411   30420       1   30408   30417  -30426   30420       1
   30408   30417   30426   30435       1   30408   30417   30429   30438       1
   30396   30408   30393   30411       1   30396   30408   30417   30426       1
   30396   30408   30417   30429       1   30393   30408   30417   30426       1
   30393   30408   30417   30429       1   30393   30411  -30420   30426       1
   30387   30372   30393   30408       1   30387   30372   30393   30411       1
   30375   30357   30372   30387       1   30375   30357   30372   30393       1
   30375   30396  -30408   30393       1   30375   30396   30408   30417       1
   30372   30357   30375   30396       1   30372   30393  -30408   30396       1
   30372   30393   30408   30417       1   30372   30393   30411   30420       1
   30369   30354   30366   30378       1   30369   30387   30372   30393       1
   30366   30354   30369   30387       1   30357   30348   30351   30360       1
   30357   30348   30354   30366       1   30357   30348   30354   30369       1
   30357   30372  -30387   30369       1   30357   30372   30393   30408       1
   30357   30372   30393   30411       1   30357   30375  -30396   30408       1
   30354   30348   30351   30360       1   30354   30348   30357   30372       1
   30354   30348   30357   30375       1   30354   30366  -30378   30360       1
   30354   30369  -30387   30372       1   30351   30348   30354   30366       1
   30351   30348   30354   30369       1   30351   30348   30357   30372       1
   30351   30348   30357   30375       1   30351   30360  -30378   30366       1
   30348   30351   30360   30378       1   30348   30354  -30366   30378       1
   30348   30354   30369   30387       1   30348   30357  -30372   30387       1
   30348   30357   30372   30393       1   30348   30357   30375   30396       1
   30537   30525   30534   30543       1   30537   30546  -30552   30543       1
   30534   30525   30537   30546       1   30534   30543  -30552   30546       1
   30528   30534   30525   30537       1   30528   30534   30543   30552       1
   30525   30534   30543   30552       1   30525   30537  -30546   30552       1
   30519   30501   30516   30525       1   30519   30528  -30534   30525       1
   30519   30528   30534   30543       1   30516   30501   30519   30528       1
   30516   30525  -30534   30528       1   30516   30525   30534   30543       1
   30516   30525   30537   30546       1   30504   30516   30501   30519       1
   30504   30516   30525   30534       1   30504   30516   30525   30537       1
   30501   30516   30525   30534       1   30501   30516   30525   30537       1
   30501   30519  -30528   30534       1   30495   30480   30501   30516       1
   30495   30480   30501   30519       1   30483   30465   30480   30495       1
   30483   30465   30480   30501       1   30483   30504  -30516   30501       1
   30483   30504   30516   30525       1   30480   30465   30483   30504       1
   30480   30501  -30516   30504       1   30480   30501   30516   30525       1
   30480   30501   30519   30528       1   30477   30462   30474   30486       1
   30477   30495   30480   30501       1   30474   30462   30477   30495       1
   30465   30456   30459   30468       1   30465   30456   30462   30474       1
   30465   30456   30462   30477       1   30465   30480  -30495   30477       1
   30465   30480   30501   30516       1   30465   30480   30501   30519       1
   30465   30483  -30504   30516       1   30462   30456   30459   30468       1
   30462   30456   30465   30480       1   30462   30456   30465   30483       1
   30462   30474  -30486   30468       1   30462   30477  -30495   30480       1
   30459   30456   30462   30474       1   30459   30456   30462   30477       1
   30459   30456   30465   30480       1   30459   30456   30465   30483       1
   30459   30468  -30486   30474       1   30456   30459   30468   30486       1
   30456   30462  -30474   30486       1   30456   30462   30477   30495       1
   30456   30465  -30480   30495       1   30456   30465   30480   30501       1
   30456   30465   30483   30504       1   30645   30633   30642   30651       1
   30645   30654  -30660   30651       1   30642   30633   30645   30654       1
   30642   30651  -30660   30654       1   30636   30642   30633   30645       1
   30636   30642   30651   30660       1   30633   30642   30651   30660       1
   30633   30645  -30654   30660       1   30627   30609   30624   30633       1
   30627   30636  -30642   30633       1   30627   30636   30642   30651       1
   30624   30609   30627   30636       1   30624   30633  -30642   30636       1
   30624   30633   30642   30651       1   30624   30633   30645   30654       1
   30612   30624   30609   30627       1   30612   30624   30633   30642       1
   30612   30624   30633   30645       1   30609   30624   30633   30642       1
   30609   30624   30633   30645       1   30609   30627  -30636   30642       1
   30603   30588   30609   30624       1   30603   30588   30609   30627       1
   30591   30573   30588   30603       1   30591   30573   30588   30609       1
   30591   30612  -30624   30609       1   30591   30612   30624   30633       1
   30588   30573   30591   30612       1   30588   30609  -30624   30612       1
   30588   30609   30624   30633       1   30588   30609   30627   30636       1
   30585   30570   30582   30594       1   30585   30603   30588   30609       1
   30582   30570   30585   30603       1   30573   30564   30567   30576       1
   30573   30564   30570   30582       1   30573   30564   30570   30585       1
   30573   30588  -30603   30585       1   30573   30588   30609   30624       1
   30573   30588   30609   30627       1   30573   30591  -30612   30624       1
   30570   30564   30567   30576       1   30570   30564   30573   30588       1
   30570   30564   30573   30591       1   30570   30582  -30594   30576       1
   30570   30585  -30603   30588       1   30567   30564   30570   30582       1
   30567   30564   30570   30585       1   30567   30564   30573   30588       1
   30567   30564   30573   30591       1   30567   30576  -30594   30582       1
   30564   30567   30576   30594       1   30564   30570  -30582   30594       1
   30564   30570   30585   30603       1   30564   30573  -30588   30603       1
   30564   30573   30588   30609       1   30564   30573   30591   30612       1
   30753   30741   30750   30759       1   30753   30762  -30768   30759       1
   30750   30741   30753   30762       1   30750   30759  -30768   30762       1
   30744   30750   30741   30753       1   30744   30750   30759   30768       1
   30741   30750   30759   30768       1   30741   30753  -30762   30768       1
   30735   30717   30732   30741       1   30735   30744  -30750   30741       1
   30735   30744   30750   30759       1   30732   30717   30735   30744       1
   30732   30741  -30750   30744       1   30732   30741   30750   30759       1
   30732   30741   30753   30762       1   30720   30732   30717   30735       1
   30720   30732   30741   30750       1   30720   30732   30741   30753       1
   30717   30732   30741   30750       1   30717   30732   30741   30753       1
   30717   30735  -30744   30750       1   30711   30696   30717   30732       1
   30711   30696   30717   30735       1   30699   30681   30696   30711       1
   30699   30681   30696   30717       1   30699   30720  -30732   30717       1
   30699   30720   30732   30741       1   30696   30681   30699   30720       1
   30696   30717  -30732   30720       1   30696   30717   30732   30741       1
   30696   30717   30735   30744       1   30693   30678   30690   30702       1
   30693   30711   30696   30717       1   30690   30678   30693   30711       1
   30681   30672   30675   30684       1   30681   30672   30678   30690       1
   30681   30672   30678   30693       1   30681   30696  -30711   30693       1
   30681   30696   30717   30732       1   30681   30696   30717   30735       1
   30681   30699  -30720   30732       1   30678   30672   30675   30684       1
   30678   30672   30681   30696       1   30678   30672   30681   30699       1
   30678   30690  -30702   30684       1   30678   30693  -30711   30696       1
   30675   30672   30678   30690       1   30675   30672   30678   30693       1
   30675   30672   30681   30696       1   30675   30672   30681   30699       1
   30675   30684  -30702   30690       1   30672   30675   30684   30702       1
   30672   30678  -30690   30702       1   30672   30678   30693   30711       1
   30672   30681  -30696   30711       1   30672   30681   30696   30717       1
   30672   30681   30699   30720       1   30861   30849   30858   30867       1
   30861   30870  -30876   30867       1   30858   30849   30861   30870       1
   30858   30867  -30876   30870       1   30852   30858   30849   30861       1
   30852   30858   30867   30876       1   30849   30858   30867   30876       1
   30849   30861  -30870   30876       1   30843   30825   30840   30849       1
   30843   30852  -30858   30849       1   30843   30852   30858   30867       1
   30840   30825   30843   30852       1   30840   30849  -30858   30852       1
   30840   30849   30858   30867       1   30840   30849   30861   30870       1
   30828   30840   30825   30843       1   30828   30840   30849   30858       1
   30828   30840   30849   30861       1   30825   30840   30849   30858       1
   30825   30840   30849   30861       1   30825   30843  -30852   30858       1
   30819   30804   30825   30840       1   30819   30804   30825   30843       1
   30807   30789   30804   30819       1   30807   30789   30804   30825       1
   30807   30828  -30840   30825       1   30807   30828   30840   30849       1
   30804   30789   30807   30828       1   30804   30825  -30840   30828       1
   30804   30825   30840   30849       1   30804   30825   30843   30852       1
   30801   30786   30798   30810       1   30801   30819   30804   30825       1
   30798   30786   30801   30819       1   30789   30780   30783   30792       1
   30789   30780   30786   30798       1   30789   30780   30786   30801       1
   30789   30804  -30819   30801       1   30789   30804   30825   30840       1
   30789   30804   30825   30843       1   30789   30807  -30828   30840       1
   30786   30780   30783   30792       1   30786   30780   30789   30804       1
   30786   30780   30789   30807       1   30786   30798  -30810   30792       1
   30786   30801  -30819   30804       1   30783   30780   30786   30798       1
   30783   30780   30786   30801       1   30783   30780   30789   30804       1
   30783   30780   30789   30807       1   30783   30792  -30810   30798       1
   30780   30783   30792   30810       1   30780   30786  -30798   30810       1
   30780   30786   30801   30819       1   30780   30789  -30804   30819       1
   30780   30789   30804   30825       1   30780   30789   30807   30828       1
   30969   30957   30966   30975       1   30969   30978  -30984   30975       1
   30966   30957   30969   30978       1   30966   30975  -30984   30978       1
   30960   30966   30957   30969       1   30960   30966   30975   30984       1
   30957   30966   30975   30984       1   30957   30969  -30978   30984       1
   30951   30933   30948   30957       1   30951   30960  -30966   30957       1
   30951   30960   30966   30975       1   30948   30933   30951   30960       1
   30948   30957  -30966   30960       1   30948   30957   30966   30975       1
   30948   30957   30969   30978       1   30936   30948   30933   30951       1
   30936   30948   30957   30966       1   30936   30948   30957   30969       1
   30933   30948   30957   30966       1   30933   30948   30957   30969       1
   30933   30951  -30960   30966       1   30927   30912   30933   30948       1
   30927   30912   30933   30951       1   30915   30897   30912   30927       1
   30915   30897   30912   30933       1   30915   30936  -30948   30933       1
   30915   30936   30948   30957       1   30912   30897   30915   30936       1
   30912   30933  -30948   30936       1   30912   30933   30948   30957       1
   30912   30933   30951   30960       1   30909   30894   30906   30918       1
   30909   30927   30912   30933       1   30906   30894   30909   30927       1
   30897   30888   30891   30900       1   30897   30888   30894   30906       1
   30897   30888   30894   30909       1   30897   30912  -30927   30909       1
   30897   30912   30933   30948       1   30897   30912   30933   30951       1
   30897   30915  -30936   30948       1   30894   30888   30891   30900       1
   30894   30888   30897   30912       1   30894   30888   30897   30915       1
   30894   30906  -30918   30900       1   30894   30909  -30927   30912       1
   30891   30888   30894   30906       1   30891   30888   30894   30909       1
   30891   30888   30897   30912       1   30891   30888   30897   30915       1
   30891   30900  -30918   30906       1   30888   30891   30900   30918       1
   30888   30894  -30906   30918       1   30888   30894   30909   30927       1
   30888   30897  -30912   30927       1   30888   30897   30912   30933       1
   30888   30897   30915   30936       1   31077   31065   31074   31083       1
   31077   31086  -31092   31083       1   31074   31065   31077   31086       1
   31074   31083  -31092   31086       1   31068   31074   31065   31077       1
   31068   31074   31083   31092       1   31065   31074   31083   31092       1
   31065   31077  -31086   31092       1   31059   31041   31056   31065       1
   31059   31068  -31074   31065       1   31059   31068   31074   31083       1
   31056   31041   31059   31068       1   31056   31065  -31074   31068       1
   31056   31065   31074   31083       1   31056   31065   31077   31086       1
   31044   31056   31041   31059       1   31044   31056   31065   31074       1
   31044   31056   31065   31077       1   31041   31056   31065   31074       1
   31041   31056   31065   31077       1   31041   31059  -31068   31074       1
   31035   31020   31041   31056       1   31035   31020   31041   31059       1
   31023   31005   31020   31035       1   31023   31005   31020   31041       1
   31023   31044  -31056   31041       1   31023   31044   31056   31065       1
   31020   31005   31023   31044       1   31020   31041  -31056   31044       1
   31020   31041   31056   31065       1   31020   31041   31059   31068       1
   31017   31002   31014   31026       1   31017   31035   31020   31041       1
   31014   31002   31017   31035       1   31005   30996   30999   31008       1
   31005   30996   31002   31014       1   31005   30996   31002   31017       1
   31005   31020  -31035   31017       1   31005   31020   31041   31056       1
   31005   31020   31041   31059       1   31005   31023  -31044   31056       1
   31002   30996   30999   31008       1   31002   30996   31005   31020       1
   31002   30996   31005   31023       1   31002   31014  -31026   31008       1
   31002   31017  -31035   31020       1   30999   30996   31002   31014       1
   30999   30996   31002   31017       1   30999   30996   31005   31020       1
   30999   30996   31005   31023       1   30999   31008  -31026   31014       1
   30996   30999   31008   31026       1   30996   31002  -31014   31026       1
   30996   31002   31017   31035       1   30996   31005  -31020   31035       1
   30996   31005   31020   31041       1   30996   31005   31023   31044       1
   31185   31173   31182   31191       1   31185   31194  -31200   31191       1
   31182   31173   31185   31194       1   31182   31191  -31200   31194       1
   31176   31182   31173   31185       1   31176   31182   31191   31200       1
   31173   31182   31191   31200       1   31173   31185  -31194   31200       1
   31167   31149   31164   31173       1   31167   31176  -31182   31173       1
   31167   31176   31182   31191       1   31164   31149   31167   31176       1
   31164   31173  -31182   31176       1   31164   31173   31182   31191       1
   31164   31173   31185   31194       1   31152   31164   31149   31167       1
   31152   31164   31173   31182       1   31152   31164   31173   31185       1
   31149   31164   31173   31182       1   31149   31164   31173   31185       1
   31149   31167  -31176   31182       1   31143   31128   31149   31164       1
   31143   31128   31149   31167       1   31131   31113   31128   31143       1
   31131   31113   31128   31149       1   31131   31152  -31164   31149       1
   31131   31152   31164   31173       1   31128   31113   31131   31152       1
   31128   31149  -31164   31152       1   31128   31149   31164   31173       1
   31128   31149   31167   31176       1   31125   31110   31122   31134       1
   31125   31143   31128   31149       1   31122   31110   31125   31143       1
   31113   31104   31107   31116       1   31113   31104   31110   31122       1
   31113   31104   31110   31125       1   31113   31128  -31143   31125       1
   31113   31128   31149   31164       1   31113   31128   31149   31167       1
   31113   31131  -31152   31164       1   31110   31104   31107   31116       1
   31110   31104   31113   31128       1   31110   31104   31113   31131       1
   31110   31122  -31134   31116       1   31110   31125  -31143   31128       1
   31107   31104   31110   31122       1   31107   31104   31110   31125       1
   31107   31104   31113   31128       1   31107   31104   31113   31131       1
   31107   31116  -31134   31122       1   31104   31107   31116   31134       1
   31104   31110  -31122   31134       1   31104   31110   31125   31143       1
   31104   31113  -31128   31143       1   31104   31113   31128   31149       1
   31104   31113   31131   31152       1   31293   31281   31290   31299       1
   31293   31302  -31308   31299       1   31290   31281   31293   31302       1
   31290   31299  -31308   31302       1   31284   31290   31281   31293       1
   31284   31290   31299   31308       1   31281   31290   31299   31308       1
   31281   31293  -31302   31308       1   31275   31257   31272   31281       1
   31275   31284  -31290   31281       1   31275   31284   31290   31299       1
   31272   31257   31275   31284       1   31272   31281  -31290   31284       1
   31272   31281   31290   31299       1   31272   31281   31293   31302       1
   31260   31272   31257   31275       1   31260   31272   31281   31290       1
   31260   31272   31281   31293       1   31257   31272   31281   31290       1
   31257   31272   31281   31293       1   31257   31275  -31284   31290       1
   31251   31236   31257   31272       1   31251   31236   31257   31275       1
   31239   31221   31236   31251       1   31239   31221   31236   31257       1
   31239   31260  -31272   31257       1   31239   31260   31272   31281       1
   31236   31221   31239   31260       1   31236   31257  -31272   31260       1
   31236   31257   31272   31281       1   31236   31257   31275   31284       1
   31233   31218   31230   31242       1   31233   31251   31236   31257       1
   31230   31218   31233   31251       1   31221   31212   31215   31224       1
   31221   31212   31218   31230       1   31221   31212   31218   31233       1
   31221   31236  -31251   31233       1   31221   31236   31257   31272       1
   31221   31236   31257   31275       1   31221   31239  -31260   31272       1
   31218   31212   31215   31224       1   31218   31212   31221   31236       1
   31218   31212   31221   31239       1   31218   31230  -31242   31224       1
   31218   31233  -31251   31236       1   31215   31212   31218   31230       1
   31215   31212   31218   31233       1   31215   31212   31221   31236       1
   31215   31212   31221   31239       1   31215   31224  -31242   31230       1
   31212   31215   31224   31242       1   31212   31218  -31230   31242       1
   31212   31218   31233   31251       1   31212   31221  -31236   31251       1
   31212   31221   31236   31257       1   31212   31221   31239   31260       1
   31401   31389   31398   31407       1   31401   31410  -31416   31407       1
   31398   31389   31401   31410       1   31398   31407  -31416   31410       1
   31392   31398   31389   31401       1   31392   31398   31407   31416       1
   31389   31398   31407   31416       1   31389   31401  -31410   31416       1
   31383   31365   31380   31389       1   31383   31392  -31398   31389       1
   31383   31392   31398   31407       1   31380   31365   31383   31392       1
   31380   31389  -31398   31392       1   31380   31389   31398   31407       1
   31380   31389   31401   31410       1   31368   31380   31365   31383       1
   31368   31380   31389   31398       1   31368   31380   31389   31401       1
   31365   31380   31389   31398       1   31365   31380   31389   31401       1
   31365   31383  -31392   31398       1   31359   31344   31365   31380       1
   31359   31344   31365   31383       1   31347   31329   31344   31359       1
   31347   31329   31344   31365       1   31347   31368  -31380   31365       1
   31347   31368   31380   31389       1   31344   31329   31347   31368       1
   31344   31365  -31380   31368       1   31344   31365   31380   31389       1
   31344   31365   31383   31392       1   31341   31326   31338   31350       1
   31341   31359   31344   31365       1   31338   31326   31341   31359       1
   31329   31320   31323   31332       1   31329   31320   31326   31338       1
   31329   31320   31326   31341       1   31329   31344  -31359   31341       1
   31329   31344   31365   31380       1   31329   31344   31365   31383       1
   31329   31347  -31368   31380       1   31326   31320   31323   31332       1
   31326   31320   31329   31344       1   31326   31320   31329   31347       1
   31326   31338  -31350   31332       1   31326   31341  -31359   31344       1
   31323   31320   31326   31338       1   31323   31320   31326   31341       1
   31323   31320   31329   31344       1   31323   31320   31329   31347       1
   31323   31332  -31350   31338       1   31320   31323   31332   31350       1
   31320   31326  -31338   31350       1   31320   31326   31341   31359       1
   31320   31329  -31344   31359       1   31320   31329   31344   31365       1
   31320   31329   31347   31368       1   31509   31497   31506   31515       1
   31509   31518  -31524   31515       1   31506   31497   31509   31518       1
   31506   31515  -31524   31518       1   31500   31506   31497   31509       1
   31500   31506   31515   31524       1   31497   31506   31515   31524       1
   31497   31509  -31518   31524       1   31491   31473   31488   31497       1
   31491   31500  -31506   31497       1   31491   31500   31506   31515       1
   31488   31473   31491   31500       1   31488   31497  -31506   31500       1
   31488   31497   31506   31515       1   31488   31497   31509   31518       1
   31476   31488   31473   31491       1   31476   31488   31497   31506       1
   31476   31488   31497   31509       1   31473   31488   31497   31506       1
   31473   31488   31497   31509       1   31473   31491  -31500   31506       1
   31467   31452   31473   31488       1   31467   31452   31473   31491       1
   31455   31437   31452   31467       1   31455   31437   31452   31473       1
   31455   31476  -31488   31473       1   31455   31476   31488   31497       1
   31452   31437   31455   31476       1   31452   31473  -31488   31476       1
   31452   31473   31488   31497       1   31452   31473   31491   31500       1
   31449   31434   31446   31458       1   31449   31467   31452   31473       1
   31446   31434   31449   31467       1   31437   31428   31431   31440       1
   31437   31428   31434   31446       1   31437   31428   31434   31449       1
   31437   31452  -31467   31449       1   31437   31452   31473   31488       1
   31437   31452   31473   31491       1   31437   31455  -31476   31488       1
   31434   31428   31431   31440       1   31434   31428   31437   31452       1
   31434   31428   31437   31455       1   31434   31446  -31458   31440       1
   31434   31449  -31467   31452       1   31431   31428   31434   31446       1
   31431   31428   31434   31449       1   31431   31428   31437   31452       1
   31431   31428   31437   31455       1   31431   31440  -31458   31446       1
   31428   31431   31440   31458       1   31428   31434  -31446   31458       1
   31428   31434   31449   31467       1   31428   31437  -31452   31467       1
   31428   31437   31452   31473       1   31428   31437   31455   31476       1
   31617   31605   31614   31623       1   31617   31626  -31632   31623       1
   31614   31605   31617   31626       1   31614   31623  -31632   31626       1
   31608   31614   31605   31617       1   31608   31614   31623   31632       1
   31605   31614   31623   31632       1   31605   31617  -31626   31632       1
   31599   31581   31596   31605       1   31599   31608  -31614   31605       1
   31599   31608   31614   31623       1   31596   31581   31599   31608       1
   31596   31605  -31614   31608       1   31596   31605   31614   31623       1
   31596   31605   31617   31626       1   31584   31596   31581   31599       1
   31584   31596   31605   31614       1   31584   31596   31605   31617       1
   31581   31596   31605   31614       1   31581   31596   31605   31617       1
   31581   31599  -31608   31614       1   31575   31560   31581   31596       1
   31575   31560   31581   31599       1   31563   31545   31560   31575       1
   31563   31545   31560   31581       1   31563   31584  -31596   31581       1
   31563   31584   31596   31605       1   31560   31545   31563   31584       1
   31560   31581  -31596   31584       1   31560   31581   31596   31605       1
   31560   31581   31599   31608       1   31557   31542   31554   31566       1
   31557   31575   31560   31581       1   31554   31542   31557   31575       1
   31545   31536   31539   31548       1   31545   31536   31542   31554       1
   31545   31536   31542   31557       1   31545   31560  -31575   31557       1
   31545   31560   31581   31596       1   31545   31560   31581   31599       1
   31545   31563  -31584   31596       1   31542   31536   31539   31548       1
   31542   31536   31545   31560       1   31542   31536   31545   31563       1
   31542   31554  -31566   31548       1   31542   31557  -31575   31560       1
   31539   31536   31542   31554       1   31539   31536   31542   31557       1
   31539   31536   31545   31560       1   31539   31536   31545   31563       1
   31539   31548  -31566   31554       1   31536   31539   31548   31566       1
   31536   31542  -31554   31566       1   31536   31542   31557   31575       1
   31536   31545  -31560   31575       1   31536   31545   31560   31581       1
   31536   31545   31563   31584       1   31725   31713   31722   31731       1
   31725   31734  -31740   31731       1   31722   31713   31725   31734       1
   31722   31731  -31740   31734       1   31716   31722   31713   31725       1
   31716   31722   31731   31740       1   31713   31722   31731   31740       1
   31713   31725  -31734   31740       1   31707   31689   31704   31713       1
   31707   31716  -31722   31713       1   31707   31716   31722   31731       1
   31704   31689   31707   31716       1   31704   31713  -31722   31716       1
   31704   31713   31722   31731       1   31704   31713   31725   31734       1
   31692   31704   31689   31707       1   31692   31704   31713   31722       1
   31692   31704   31713   31725       1   31689   31704   31713   31722       1
   31689   31704   31713   31725       1   31689   31707  -31716   31722       1
   31683   31668   31689   31704       1   31683   31668   31689   31707       1
   31671   31653   31668   31683       1   31671   31653   31668   31689       1
   31671   31692  -31704   31689       1   31671   31692   31704   31713       1
   31668   31653   31671   31692       1   31668   31689  -31704   31692       1
   31668   31689   31704   31713       1   31668   31689   31707   31716       1
   31665   31650   31662   31674       1   31665   31683   31668   31689       1
   31662   31650   31665   31683       1   31653   31644   31647   31656       1
   31653   31644   31650   31662       1   31653   31644   31650   31665       1
   31653   31668  -31683   31665       1   31653   31668   31689   31704       1
   31653   31668   31689   31707       1   31653   31671  -31692   31704       1
   31650   31644   31647   31656       1   31650   31644   31653   31668       1
   31650   31644   31653   31671       1   31650   31662  -31674   31656       1
   31650   31665  -31683   31668       1   31647   31644   31650   31662       1
   31647   31644   31650   31665       1   31647   31644   31653   31668       1
   31647   31644   31653   31671       1   31647   31656  -31674   31662       1
   31644   31647   31656   31674       1   31644   31650  -31662   31674       1
   31644   31650   31665   31683       1   31644   31653  -31668   31683       1
   31644   31653   31668   31689       1   31644   31653   31671   31692       1
   31833   31821   31830   31839       1   31833   31842  -31848   31839       1
   31830   31821   31833   31842       1   31830   31839  -31848   31842       1
   31824   31830   31821   31833       1   31824   31830   31839   31848       1
   31821   31830   31839   31848       1   31821   31833  -31842   31848       1
   31815   31797   31812   31821       1   31815   31824  -31830   31821       1
   31815   31824   31830   31839       1   31812   31797   31815   31824       1
   31812   31821  -31830   31824       1   31812   31821   31830   31839       1
   31812   31821   31833   31842       1   31800   31812   31797   31815       1
   31800   31812   31821   31830       1   31800   31812   31821   31833       1
   31797   31812   31821   31830       1   31797   31812   31821   31833       1
   31797   31815  -31824   31830       1   31791   31776   31797   31812       1
   31791   31776   31797   31815       1   31779   31761   31776   31791       1
   31779   31761   31776   31797       1   31779   31800  -31812   31797       1
   31779   31800   31812   31821       1   31776   31761   31779   31800       1
   31776   31797  -31812   31800       1   31776   31797   31812   31821       1
   31776   31797   31815   31824       1   31773   31758   31770   31782       1
   31773   31791   31776   31797       1   31770   31758   31773   31791       1
   31761   31752   31755   31764       1   31761   31752   31758   31770       1
   31761   31752   31758   31773       1   31761   31776  -31791   31773       1
   31761   31776   31797   31812       1   31761   31776   31797   31815       1
   31761   31779  -31800   31812       1   31758   31752   31755   31764       1
   31758   31752   31761   31776       1   31758   31752   31761   31779       1
   31758   31770  -31782   31764       1   31758   31773  -31791   31776       1
   31755   31752   31758   31770       1   31755   31752   31758   31773       1
   31755   31752   31761   31776       1   31755   31752   31761   31779       1
   31755   31764  -31782   31770       1   31752   31755   31764   31782       1
   31752   31758  -31770   31782       1   31752   31758   31773   31791       1
   31752   31761  -31776   31791       1   31752   31761   31776   31797       1
   31752   31761   31779   31800       1   31941   31929   31938   31947       1
   31941   31950  -31956   31947       1   31938   31929   31941   31950       1
   31938   31947  -31956   31950       1   31932   31938   31929   31941       1
   31932   31938   31947   31956       1   31929   31938   31947   31956       1
   31929   31941  -31950   31956       1   31923   31905   31920   31929       1
   31923   31932  -31938   31929       1   31923   31932   31938   31947       1
   31920   31905   31923   31932       1   31920   31929  -31938   31932       1
   31920   31929   31938   31947       1   31920   31929   31941   31950       1
   31908   31920   31905   31923       1   31908   31920   31929   31938       1
   31908   31920   31929   31941       1   31905   31920   31929   31938       1
   31905   31920   31929   31941       1   31905   31923  -31932   31938       1
   31899   31884   31905   31920       1   31899   31884   31905   31923       1
   31887   31869   31884   31899       1   31887   31869   31884   31905       1
   31887   31908  -31920   31905       1   31887   31908   31920   31929       1
   31884   31869   31887   31908       1   31884   31905  -31920   31908       1
   31884   31905   31920   31929       1   31884   31905   31923   31932       1
   31881   31866   31878   31890       1   31881   31899   31884   31905       1
   31878   31866   31881   31899       1   31869   31860   31863   31872       1
   31869   31860   31866   31878       1   31869   31860   31866   31881       1
   31869   31884  -31899   31881       1   31869   31884   31905   31920       1
   31869   31884   31905   31923       1   31869   31887  -31908   31920       1
   31866   31860   31863   31872       1   31866   31860   31869   31884       1
   31866   31860   31869   31887       1   31866   31878  -31890   31872       1
   31866   31881  -31899   31884       1   31863   31860   31866   31878       1
   31863   31860   31866   31881       1   31863   31860   31869   31884       1
   31863   31860   31869   31887       1   31863   31872  -31890   31878       1
   31860   31863   31872   31890       1   31860   31866  -31878   31890       1
   31860   31866   31881   31899       1   31860   31869  -31884   31899       1
   31860   31869   31884   31905       1   31860   31869   31887   31908       1
   32049   32037   32046   32055       1   32049   32058  -32064   32055       1
   32046   32037   32049   32058       1   32046   32055  -32064   32058       1
   32040   32046   32037   32049       1   32040   32046   32055   32064       1
   32037   32046   32055   32064       1   32037   32049  -32058   32064       1
   32031   32013   32028   32037       1   32031   32040  -32046   32037       1
   32031   32040   32046   32055       1   32028   32013   32031   32040       1
   32028   32037  -32046   32040       1   32028   32037   32046   32055       1
   32028   32037   32049   32058       1   32016   32028   32013   32031       1
   32016   32028   32037   32046       1   32016   32028   32037   32049       1
   32013   32028   32037   32046       1   32013   32028   32037   32049       1
   32013   32031  -32040   32046       1   32007   31992   32013   32028       1
   32007   31992   32013   32031       1   31995   31977   31992   32007       1
   31995   31977   31992   32013       1   31995   32016  -32028   32013       1
   31995   32016   32028   32037       1   31992   31977   31995   32016       1
   31992   32013  -32028   32016       1   31992   32013   32028   32037       1
   31992   32013   32031   32040       1   31989   31974   31986   31998       1
   31989   32007   31992   32013       1   31986   31974   31989   32007       1
   31977   31968   31971   31980       1   31977   31968   31974   31986       1
   31977   31968   31974   31989       1   31977   31992  -32007   31989       1
   31977   31992   32013   32028       1   31977   31992   32013   32031       1
   31977   31995  -32016   32028       1   31974   31968   31971   31980       1
   31974   31968   31977   31992       1   31974   31968   31977   31995       1
   31974   31986  -31998   31980       1   31974   31989  -32007   31992       1
   31971   31968   31974   31986       1   31971   31968   31974   31989       1
   31971   31968   31977   31992       1   31971   31968   31977   31995       1
   31971   31980  -31998   31986       1   31968   31971   31980   31998       1
   31968   31974  -31986   31998       1   31968   31974   31989   32007       1
   31968   31977  -31992   32007       1   31968   31977   31992   32013       1
   31968   31977   31995   32016       1   32157   32145   32154   32163       1
   32157   32166  -32172   32163       1   32154   32145   32157   32166       1
   32154   32163  -32172   32166       1   32148   32154   32145   32157       1
   32148   32154   32163   32172       1   32145   32154   32163   32172       1
   32145   32157  -32166   32172       1   32139   32121   32136   32145       1
   32139   32148  -32154   32145       1   32139   32148   32154   32163       1
   32136   32121   32139   32148       1   32136   32145  -32154   32148       1
   32136   32145   32154   32163       1   32136   32145   32157   32166       1
   32124   32136   32121   32139       1   32124   32136   32145   32154       1
   32124   32136   32145   32157       1   32121   32136   32145   32154       1
   32121   32136   32145   32157       1   32121   32139  -32148   32154       1
   32115   32100   32121   32136       1   32115   32100   32121   32139       1
   32103   32085   32100   32115       1   32103   32085   32100   32121       1
   32103   32124  -32136   32121       1   32103   32124   32136   32145       1
   32100   32085   32103   32124       1   32100   32121  -32136   32124       1
   32100   32121   32136   32145       1   32100   32121   32139   32148       1
   32097   32082   32094   32106       1   32097   32115   32100   32121       1
   32094   32082   32097   32115       1   32085   32076   32079   32088       1
   32085   32076   32082   32094       1   32085   32076   32082   32097       1
   32085   32100  -32115   32097       1   32085   32100   32121   32136       1
   32085   32100   32121   32139       1   32085   32103  -32124   32136       1
   32082   32076   32079   32088       1   32082   32076   32085   32100       1
   32082   32076   32085   32103       1   32082   32094  -32106   32088       1
   32082   32097  -32115   32100       1   32079   32076   32082   32094       1
   32079   32076   32082   32097       1   32079   32076   32085   32100       1
   32079   32076   32085   32103       1   32079   32088  -32106   32094       1
   32076   32079   32088   32106       1   32076   32082  -32094   32106       1
   32076   32082   32097   32115       1   32076   32085  -32100   32115       1
   32076   32085   32100   32121       1   32076   32085   32103   32124       1
   32265   32253   32262   32271       1   32265   32274  -32280   32271       1
   32262   32253   32265   32274       1   32262   32271  -32280   32274       1
   32256   32262   32253   32265       1   32256   32262   32271   32280       1
   32253   32262   32271   32280       1   32253   32265  -32274   32280       1
   32247   32229   32244   32253       1   32247   32256  -32262   32253       1
   32247   32256   32262   32271       1   32244   32229   32247   32256       1
   32244   32253  -32262   32256       1   32244   32253   32262   32271       1
   32244   32253   32265   32274       1   32232   32244   32229   32247       1
   32232   32244   32253   32262       1   32232   32244   32253   32265       1
   32229   32244   32253   32262       1   32229   32244   32253   32265       1
   32229   32247  -32256   32262       1   32223   32208   32229   32244       1
   32223   32208   32229   32247       1   32211   32193   32208   32223       1
   32211   32193   32208   32229       1   32211   32232  -32244   32229       1
   32211   32232   32244   32253       1   32208   32193   32211   32232       1
   32208   32229  -32244   32232       1   32208   32229   32244   32253       1
   32208   32229   32247   32256       1   32205   32190   32202   32214       1
   32205   32223   32208   32229       1   32202   32190   32205   32223       1
   32193   32184   32187   32196       1   32193   32184   32190   32202       1
   32193   32184   32190   32205       1   32193   32208  -32223   32205       1
   32193   32208   32229   32244       1   32193   32208   32229   32247       1
   32193   32211  -32232   32244       1   32190   32184   32187   32196       1
   32190   32184   32193   32208       1   32190   32184   32193   32211       1
   32190   32202  -32214   32196       1   32190   32205  -32223   32208       1
   32187   32184   32190   32202       1   32187   32184   32190   32205       1
   32187   32184   32193   32208       1   32187   32184   32193   32211       1
   32187   32196  -32214   32202       1   32184   32187   32196   32214       1
   32184   32190  -32202   32214       1   32184   32190   32205   32223       1
   32184   32193  -32208   32223       1   32184   32193   32208   32229       1
   32184   32193   32211   32232       1   32373   32361   32370   32379       1
   32373   32382  -32388   32379       1   32370   32361   32373   32382       1
   32370   32379  -32388   32382       1   32364   32370   32361   32373       1
   32364   32370   32379   32388       1   32361   32370   32379   32388       1
   32361   32373  -32382   32388       1   32355   32337   32352   32361       1
   32355   32364  -32370   32361       1   32355   32364   32370   32379       1
   32352   32337   32355   32364       1   32352   32361  -32370   32364       1
   32352   32361   32370   32379       1   32352   32361   32373   32382       1
   32340   32352   32337   32355       1   32340   32352   32361   32370       1
   32340   32352   32361   32373       1   32337   32352   32361   32370       1
   32337   32352   32361   32373       1   32337   32355  -32364   32370       1
   32331   32316   32337   32352       1   32331   32316   32337   32355       1
   32319   32301   32316   32331       1   32319   32301   32316   32337       1
   32319   32340  -32352   32337       1   32319   32340   32352   32361       1
   32316   32301   32319   32340       1   32316   32337  -32352   32340       1
   32316   32337   32352   32361       1   32316   32337   32355   32364       1
   32313   32298   32310   32322       1   32313   32331   32316   32337       1
   32310   32298   32313   32331       1   32301   32292   32295   32304       1
   32301   32292   32298   32310       1   32301   32292   32298   32313       1
   32301   32316  -32331   32313       1   32301   32316   32337   32352       1
   32301   32316   32337   32355       1   32301   32319  -32340   32352       1
   32298   32292   32295   32304       1   32298   32292   32301   32316       1
   32298   32292   32301   32319       1   32298   32310  -32322   32304       1
   32298   32313  -32331   32316       1   32295   32292   32298   32310       1
   32295   32292   32298   32313       1   32295   32292   32301   32316       1
   32295   32292   32301   32319       1   32295   32304  -32322   32310       1
   32292   32295   32304   32322       1   32292   32298  -32310   32322       1
   32292   32298   32313   32331       1   32292   32301  -32316   32331       1
   32292   32301   32316   32337       1   32292   32301   32319   32340       1
   32481   32469   32478   32487       1   32481   32490  -32496   32487       1
   32478   32469   32481   32490       1   32478   32487  -32496   32490       1
   32472   32478   32469   32481       1   32472   32478   32487   32496       1
   32469   32478   32487   32496       1   32469   32481  -32490   32496       1
   32463   32445   32460   32469       1   32463   32472  -32478   32469       1
   32463   32472   32478   32487       1   32460   32445   32463   32472       1
   32460   32469  -32478   32472       1   32460   32469   32478   32487       1
   32460   32469   32481   32490       1   32448   32460   32445   32463       1
   32448   32460   32469   32478       1   32448   32460   32469   32481       1
   32445   32460   32469   32478       1   32445   32460   32469   32481       1
   32445   32463  -32472   32478       1   32439   32424   32445   32460       1
   32439   32424   32445   32463       1   32427   32409   32424   32439       1
   32427   32409   32424   32445       1   32427   32448  -32460   32445       1
   32427   32448   32460   32469       1   32424   32409   32427   32448       1
   32424   32445  -32460   32448       1   32424   32445   32460   32469       1
   32424   32445   32463   32472       1   32421   32406   32418   32430       1
   32421   32439   32424   32445       1   32418   32406   32421   32439       1
   32409   32400   32403   32412       1   32409   32400   32406   32418       1
   32409   32400   32406   32421       1   32409   32424  -32439   32421       1
   32409   32424   32445   32460       1   32409   32424   32445   32463       1
   32409   32427  -32448   32460       1   32406   32400   32403   32412       1
   32406   32400   32409   32424       1   32406   32400   32409   32427       1
   32406   32418  -32430   32412       1   32406   32421  -32439   32424       1
   32403   32400   32406   32418       1   32403   32400   32406   32421       1
   32403   32400   32409   32424       1   32403   32400   32409   32427       1
   32403   32412  -32430   32418       1   32400   32403   32412   32430       1
   32400   32406  -32418   32430       1   32400   32406   32421   32439       1
   32400   32409  -32424   32439       1   32400   32409   32424   32445       1
   32400   32409   32427   32448       1   32589   32577   32586   32595       1
   32589   32598  -32604   32595       1   32586   32577   32589   32598       1
   32586   32595  -32604   32598       1   32580   32586   32577   32589       1
   32580   32586   32595   32604       1   32577   32586   32595   32604       1
   32577   32589  -32598   32604       1   32571   32553   32568   32577       1
   32571   32580  -32586   32577       1   32571   32580   32586   32595       1
   32568   32553   32571   32580       1   32568   32577  -32586   32580       1
   32568   32577   32586   32595       1   32568   32577   32589   32598       1
   32556   32568   32553   32571       1   32556   32568   32577   32586       1
   32556   32568   32577   32589       1   32553   32568   32577   32586       1
   32553   32568   32577   32589       1   32553   32571  -32580   32586       1
   32547   32532   32553   32568       1   32547   32532   32553   32571       1
   32535   32517   32532   32547       1   32535   32517   32532   32553       1
   32535   32556  -32568   32553       1   32535   32556   32568   32577       1
   32532   32517   32535   32556       1   32532   32553  -32568   32556       1
   32532   32553   32568   32577       1   32532   32553   32571   32580       1
   32529   32514   32526   32538       1   32529   32547   32532   32553       1
   32526   32514   32529   32547       1   32517   32508   32511   32520       1
   32517   32508   32514   32526       1   32517   32508   32514   32529       1
   32517   32532  -32547   32529       1   32517   32532   32553   32568       1
   32517   32532   32553   32571       1   32517   32535  -32556   32568       1
   32514   32508   32511   32520       1   32514   32508   32517   32532       1
   32514   32508   32517   32535       1   32514   32526  -32538   32520       1
   32514   32529  -32547   32532       1   32511   32508   32514   32526       1
   32511   32508   32514   32529       1   32511   32508   32517   32532       1
   32511   32508   32517   32535       1   32511   32520  -32538   32526       1
   32508   32511   32520   32538       1   32508   32514  -32526   32538       1
   32508   32514   32529   32547       1   32508   32517  -32532   32547       1
   32508   32517   32532   32553       1   32508   32517   32535   32556       1
   32697   32685   32694   32703       1   32697   32706  -32712   32703       1
   32694   32685   32697   32706       1   32694   32703  -32712   32706       1
   32688   32694   32685   32697       1   32688   32694   32703   32712       1
   32685   32694   32703   32712       1   32685   32697  -32706   32712       1
   32679   32661   32676   32685       1   32679   32688  -32694   32685       1
   32679   32688   32694   32703       1   32676   32661   32679   32688       1
   32676   32685  -32694   32688       1   32676   32685   32694   32703       1
   32676   32685   32697   32706       1   32664   32676   32661   32679       1
   32664   32676   32685   32694       1   32664   32676   32685   32697       1
   32661   32676   32685   32694       1   32661   32676   32685   32697       1
   32661   32679  -32688   32694       1   32655   32640   32661   32676       1
   32655   32640   32661   32679       1   32643   32625   32640   32655       1
   32643   32625   32640   32661       1   32643   32664  -32676   32661       1
   32643   32664   32676   32685       1   32640   32625   32643   32664       1
   32640   32661  -32676   32664       1   32640   32661   32676   32685       1
   32640   32661   32679   32688       1   32637   32622   32634   32646       1
   32637   32655   32640   32661       1   32634   32622   32637   32655       1
   32625   32616   32619   32628       1   32625   32616   32622   32634       1
   32625   32616   32622   32637       1   32625   32640  -32655   32637       1
   32625   32640   32661   32676       1   32625   32640   32661   32679       1
   32625   32643  -32664   32676       1   32622   32616   32619   32628       1
   32622   32616   32625   32640       1   32622   32616   32625   32643       1
   32622   32634  -32646   32628       1   32622   32637  -32655   32640       1
   32619   32616   32622   32634       1   32619   32616   32622   32637       1
   32619   32616   32625   32640       1   32619   32616   32625   32643       1
   32619   32628  -32646   32634       1   32616   32619   32628   32646       1
   32616   32622  -32634   32646       1   32616   32622   32637   32655       1
   32616   32625  -32640   32655       1   32616   32625   32640   32661       1
   32616   32625   32643   32664       1   32805   32793   32802   32811       1
   32805   32814  -32820   32811       1   32802   32793   32805   32814       1
   32802   32811  -32820   32814       1   32796   32802   32793   32805       1
   32796   32802   32811   32820       1   32793   32802   32811   32820       1
   32793   32805  -32814   32820       1   32787   32769   32784   32793       1
   32787   32796  -32802   32793       1   32787   32796   32802   32811       1
   32784   32769   32787   32796       1   32784   32793  -32802   32796       1
   32784   32793   32802   32811       1   32784   32793   32805   32814       1
   32772   32784   32769   32787       1   32772   32784   32793   32802       1
   32772   32784   32793   32805       1   32769   32784   32793   32802       1
   32769   32784   32793   32805       1   32769   32787  -32796   32802       1
   32763   32748   32769   32784       1   32763   32748   32769   32787       1
   32751   32733   32748   32763       1   32751   32733   32748   32769       1
   32751   32772  -32784   32769       1   32751   32772   32784   32793       1
   32748   32733   32751   32772       1   32748   32769  -32784   32772       1
   32748   32769   32784   32793       1   32748   32769   32787   32796       1
   32745   32730   32742   32754       1   32745   32763   32748   32769       1
   32742   32730   32745   32763       1   32733   32724   32727   32736       1
   32733   32724   32730   32742       1   32733   32724   32730   32745       1
   32733   32748  -32763   32745       1   32733   32748   32769   32784       1
   32733   32748   32769   32787       1   32733   32751  -32772   32784       1
   32730   32724   32727   32736       1   32730   32724   32733   32748       1
   32730   32724   32733   32751       1   32730   32742  -32754   32736       1
   32730   32745  -32763   32748       1   32727   32724   32730   32742       1
   32727   32724   32730   32745       1   32727   32724   32733   32748       1
   32727   32724   32733   32751       1   32727   32736  -32754   32742       1
   32724   32727   32736   32754       1   32724   32730  -32742   32754       1
   32724   32730   32745   32763       1   32724   32733  -32748   32763       1
   32724   32733   32748   32769       1   32724   32733   32751   32772       1
   32913   32901   32910   32919       1   32913   32922  -32928   32919       1
   32910   32901   32913   32922       1   32910   32919  -32928   32922       1
   32904   32910   32901   32913       1   32904   32910   32919   32928       1
   32901   32910   32919   32928       1   32901   32913  -32922   32928       1
   32895   32877   32892   32901       1   32895   32904  -32910   32901       1
   32895   32904   32910   32919       1   32892   32877   32895   32904       1
   32892   32901  -32910   32904       1   32892   32901   32910   32919       1
   32892   32901   32913   32922       1   32880   32892   32877   32895       1
   32880   32892   32901   32910       1   32880   32892   32901   32913       1
   32877   32892   32901   32910       1   32877   32892   32901   32913       1
   32877   32895  -32904   32910       1   32871   32856   32877   32892       1
   32871   32856   32877   32895       1   32859   32841   32856   32871       1
   32859   32841   32856   32877       1   32859   32880  -32892   32877       1
   32859   32880   32892   32901       1   32856   32841   32859   32880       1
   32856   32877  -32892   32880       1   32856   32877   32892   32901       1
   32856   32877   32895   32904       1   32853   32838   32850   32862       1
   32853   32871   32856   32877       1   32850   32838   32853   32871       1
   32841   32832   32835   32844       1   32841   32832   32838   32850       1
   32841   32832   32838   32853       1   32841   32856  -32871   32853       1
   32841   32856   32877   32892       1   32841   32856   32877   32895       1
   32841   32859  -32880   32892       1   32838   32832   32835   32844       1
   32838   32832   32841   32856       1   32838   32832   32841   32859       1
   32838   32850  -32862   32844       1   32838   32853  -32871   32856       1
   32835   32832   32838   32850       1   32835   32832   32838   32853       1
   32835   32832   32841   32856       1   32835   32832   32841   32859       1
   32835   32844  -32862   32850       1   32832   32835   32844   32862       1
   32832   32838  -32850   32862       1   32832   32838   32853   32871       1
   32832   32841  -32856   32871       1   32832   32841   32856   32877       1
   32832   32841   32859   32880       1   33021   33009   33018   33027       1
   33021   33030  -33036   33027       1   33018   33009   33021   33030       1
   33018   33027  -33036   33030       1   33012   33018   33009   33021       1
   33012   33018   33027   33036       1   33009   33018   33027   33036       1
   33009   33021  -33030   33036       1   33003   32985   33000   33009       1
   33003   33012  -33018   33009       1   33003   33012   33018   33027       1
   33000   32985   33003   33012       1   33000   33009  -33018   33012       1
   33000   33009   33018   33027       1   33000   33009   33021   33030       1
   32988   33000   32985   33003       1   32988   33000   33009   33018       1
   32988   33000   33009   33021       1   32985   33000   33009   33018       1
   32985   33000   33009   33021       1   32985   33003  -33012   33018       1
   32979   32964   32985   33000       1   32979   32964   32985   33003       1
   32967   32949   32964   32979       1   32967   32949   32964   32985       1
   32967   32988  -33000   32985       1   32967   32988   33000   33009       1
   32964   32949   32967   32988       1   32964   32985  -33000   32988       1
   32964   32985   33000   33009       1   32964   32985   33003   33012       1
   32961   32946   32958   32970       1   32961   32979   32964   32985       1
   32958   32946   32961   32979       1   32949   32940   32943   32952       1
   32949   32940   32946   32958       1   32949   32940   32946   32961       1
   32949   32964  -32979   32961       1   32949   32964   32985   33000       1
   32949   32964   32985   33003       1   32949   32967  -32988   33000       1
   32946   32940   32943   32952       1   32946   32940   32949   32964       1
   32946   32940   32949   32967       1   32946   32958  -32970   32952       1
   32946   32961  -32979   32964       1   32943   32940   32946   32958       1
   32943   32940   32946   32961       1   32943   32940   32949   32964       1
   32943   32940   32949   32967       1   32943   32952  -32970   32958       1
   32940   32943   32952   32970       1   32940   32946  -32958   32970       1
   32940   32946   32961   32979       1   32940   32949  -32964   32979       1
   32940   32949   32964   32985       1   32940   32949   32967   32988       1
   33129   33117   33126   33135       1   33129   33138  -33144   33135       1
   33126   33117   33129   33138       1   33126   33135  -33144   33138       1
   33120   33126   33117   33129       1   33120   33126   33135   33144       1
   33117   33126   33135   33144       1   33117   33129  -33138   33144       1
   33111   33093   33108   33117       1   33111   33120  -33126   33117       1
   33111   33120   33126   33135       1   33108   33093   33111   33120       1
   33108   33117  -33126   33120       1   33108   33117   33126   33135       1
   33108   33117   33129   33138       1   33096   33108   33093   33111       1
   33096   33108   33117   33126       1   33096   33108   33117   33129       1
   33093   33108   33117   33126       1   33093   33108   33117   33129       1
   33093   33111  -33120   33126       1   33087   33072   33093   33108       1
   33087   33072   33093   33111       1   33075   33057   33072   33087       1
   33075   33057   33072   33093       1   33075   33096  -33108   33093       1
   33075   33096   33108   33117       1   33072   33057   33075   33096       1
   33072   33093  -33108   33096       1   33072   33093   33108   33117       1
   33072   33093   33111   33120       1   33069   33054   33066   33078       1
   33069   33087   33072   33093       1   33066   33054   33069   33087       1
   33057   33048   33051   33060       1   33057   33048   33054   33066       1
   33057   33048   33054   33069       1   33057   33072  -33087   33069       1
   33057   33072   33093   33108       1   33057   33072   33093   33111       1
   33057   33075  -33096   33108       1   33054   33048   33051   33060       1
   33054   33048   33057   33072       1   33054   33048   33057   33075       1
   33054   33066  -33078   33060       1   33054   33069  -33087   33072       1
   33051   33048   33054   33066       1   33051   33048   33054   33069       1
   33051   33048   33057   33072       1   33051   33048   33057   33075       1
   33051   33060  -33078   33066       1   33048   33051   33060   33078       1
   33048   33054  -33066   33078       1   33048   33054   33069   33087       1
   33048   33057  -33072   33087       1   33048   33057   33072   33093       1
   33048   33057   33075   33096       1   33237   33225   33234   33243       1
   33237   33246  -33252   33243       1   33234   33225   33237   33246       1
   33234   33243  -33252   33246       1   33228   33234   33225   33237       1
   33228   33234   33243   33252       1   33225   33234   33243   33252       1
   33225   33237  -33246   33252       1   33219   33201   33216   33225       1
   33219   33228  -33234   33225       1   33219   33228   33234   33243       1
   33216   33201   33219   33228       1   33216   33225  -33234   33228       1
   33216   33225   33234   33243       1   33216   33225   33237   33246       1
   33204   33216   33201   33219       1   33204   33216   33225   33234       1
   33204   33216   33225   33237       1   33201   33216   33225   33234       1
   33201   33216   33225   33237       1   33201   33219  -33228   33234       1
   33195   33180   33201   33216       1   33195   33180   33201   33219       1
   33183   33165   33180   33195       1   33183   33165   33180   33201       1
   33183   33204  -33216   33201       1   33183   33204   33216   33225       1
   33180   33165   33183   33204       1   33180   33201  -33216   33204       1
   33180   33201   33216   33225       1   33180   33201   33219   33228       1
   33177   33162   33174   33186       1   33177   33195   33180   33201       1
   33174   33162   33177   33195       1   33165   33156   33159   33168       1
   33165   33156   33162   33174       1   33165   33156   33162   33177       1
   33165   33180  -33195   33177       1   33165   33180   33201   33216       1
   33165   33180   33201   33219       1   33165   33183  -33204   33216       1
   33162   33156   33159   33168       1   33162   33156   33165   33180       1
   33162   33156   33165   33183       1   33162   33174  -33186   33168       1
   33162   33177  -33195   33180       1   33159   33156   33162   33174       1
   33159   33156   33162   33177       1   33159   33156   33165   33180       1
   33159   33156   33165   33183       1   33159   33168  -33186   33174       1
   33156   33159   33168   33186       1   33156   33162  -33174   33186       1
   33156   33162   33177   33195       1   33156   33165  -33180   33195       1
   33156   33165   33180   33201       1   33156   33165   33183   33204       1
   33345   33333   33342   33351       1   33345   33354  -33360   33351       1
   33342   33333   33345   33354       1   33342   33351  -33360   33354       1
   33336   33342   33333   33345       1   33336   33342   33351   33360       1
   33333   33342   33351   33360       1   33333   33345  -33354   33360       1
   33327   33309   33324   33333       1   33327   33336  -33342   33333       1
   33327   33336   33342   33351       1   33324   33309   33327   33336       1
   33324   33333  -33342   33336       1   33324   33333   33342   33351       1
   33324   33333   33345   33354       1   33312   33324   33309   33327       1
   33312   33324   33333   33342       1   33312   33324   33333   33345       1
   33309   33324   33333   33342       1   33309   33324   33333   33345       1
   33309   33327  -33336   33342       1   33303   33288   33309   33324       1
   33303   33288   33309   33327       1   33291   33273   33288   33303       1
   33291   33273   33288   33309       1   33291   33312  -33324   33309       1
   33291   33312   33324   33333       1   33288   33273   33291   33312       1
   33288   33309  -33324   33312       1   33288   33309   33324   33333       1
   33288   33309   33327   33336       1   33285   33270   33282   33294       1
   33285   33303   33288   33309       1   33282   33270   33285   33303       1
   33273   33264   33267   33276       1   33273   33264   33270   33282       1
   33273   33264   33270   33285       1   33273   33288  -33303   33285       1
   33273   33288   33309   33324       1   33273   33288   33309   33327       1
   33273   33291  -33312   33324       1   33270   33264   33267   33276       1
   33270   33264   33273   33288       1   33270   33264   33273   33291       1
   33270   33282  -33294   33276       1   33270   33285  -33303   33288       1
   33267   33264   33270   33282       1   33267   33264   33270   33285       1
   33267   33264   33273   33288       1   33267   33264   33273   33291       1
   33267   33276  -33294   33282       1   33264   33267   33276   33294       1
   33264   33270  -33282   33294       1   33264   33270   33285   33303       1
   33264   33273  -33288   33303       1   33264   33273   33288   33309       1
   33264   33273   33291   33312       1   33453   33441   33450   33459       1
   33453   33462  -33468   33459       1   33450   33441   33453   33462       1
   33450   33459  -33468   33462       1   33444   33450   33441   33453       1
   33444   33450   33459   33468       1   33441   33450   33459   33468       1
   33441   33453  -33462   33468       1   33435   33417   33432   33441       1
   33435   33444  -33450   33441       1   33435   33444   33450   33459       1
   33432   33417   33435   33444       1   33432   33441  -33450   33444       1
   33432   33441   33450   33459       1   33432   33441   33453   33462       1
   33420   33432   33417   33435       1   33420   33432   33441   33450       1
   33420   33432   33441   33453       1   33417   33432   33441   33450       1
   33417   33432   33441   33453       1   33417   33435  -33444   33450       1
   33411   33396   33417   33432       1   33411   33396   33417   33435       1
   33399   33381   33396   33411       1   33399   33381   33396   33417       1
   33399   33420  -33432   33417       1   33399   33420   33432   33441       1
   33396   33381   33399   33420       1   33396   33417  -33432   33420       1
   33396   33417   33432   33441       1   33396   33417   33435   33444       1
   33393   33378   33390   33402       1   33393   33411   33396   33417       1
   33390   33378   33393   33411       1   33381   33372   33375   33384       1
   33381   33372   33378   33390       1   33381   33372   33378   33393       1
   33381   33396  -33411   33393       1   33381   33396   33417   33432       1
   33381   33396   33417   33435       1   33381   33399  -33420   33432       1
   33378   33372   33375   33384       1   33378   33372   33381   33396       1
   33378   33372   33381   33399       1   33378   33390  -33402   33384       1
   33378   33393  -33411   33396       1   33375   33372   33378   33390       1
   33375   33372   33378   33393       1   33375   33372   33381   33396       1
   33375   33372   33381   33399       1   33375   33384  -33402   33390       1
   33372   33375   33384   33402       1   33372   33378  -33390   33402       1
   33372   33378   33393   33411       1   33372   33381  -33396   33411       1
   33372   33381   33396   33417       1   33372   33381   33399   33420       1
   33561   33549   33558   33567       1   33561   33570  -33576   33567       1
   33558   33549   33561   33570       1   33558   33567  -33576   33570       1
   33552   33558   33549   33561       1   33552   33558   33567   33576       1
   33549   33558   33567   33576       1   33549   33561  -33570   33576       1
   33543   33525   33540   33549       1   33543   33552  -33558   33549       1
   33543   33552   33558   33567       1   33540   33525   33543   33552       1
   33540   33549  -33558   33552       1   33540   33549   33558   33567       1
   33540   33549   33561   33570       1   33528   33540   33525   33543       1
   33528   33540   33549   33558       1   33528   33540   33549   33561       1
   33525   33540   33549   33558       1   33525   33540   33549   33561       1
   33525   33543  -33552   33558       1   33519   33504   33525   33540       1
   33519   33504   33525   33543       1   33507   33489   33504   33519       1
   33507   33489   33504   33525       1   33507   33528  -33540   33525       1
   33507   33528   33540   33549       1   33504   33489   33507   33528       1
   33504   33525  -33540   33528       1   33504   33525   33540   33549       1
   33504   33525   33543   33552       1   33501   33486   33498   33510       1
   33501   33519   33504   33525       1   33498   33486   33501   33519       1
   33489   33480   33483   33492       1   33489   33480   33486   33498       1
   33489   33480   33486   33501       1   33489   33504  -33519   33501       1
   33489   33504   33525   33540       1   33489   33504   33525   33543       1
   33489   33507  -33528   33540       1   33486   33480   33483   33492       1
   33486   33480   33489   33504       1   33486   33480   33489   33507       1
   33486   33498  -33510   33492       1   33486   33501  -33519   33504       1
   33483   33480   33486   33498       1   33483   33480   33486   33501       1
   33483   33480   33489   33504       1   33483   33480   33489   33507       1
   33483   33492  -33510   33498       1   33480   33483   33492   33510       1
   33480   33486  -33498   33510       1   33480   33486   33501   33519       1
   33480   33489  -33504   33519       1   33480   33489   33504   33525       1
   33480   33489   33507   33528       1   33669   33657   33666   33675       1
   33669   33678  -33684   33675       1   33666   33657   33669   33678       1
   33666   33675  -33684   33678       1   33660   33666   33657   33669       1
   33660   33666   33675   33684       1   33657   33666   33675   33684       1
   33657   33669  -33678   33684       1   33651   33633   33648   33657       1
   33651   33660  -33666   33657       1   33651   33660   33666   33675       1
   33648   33633   33651   33660       1   33648   33657  -33666   33660       1
   33648   33657   33666   33675       1   33648   33657   33669   33678       1
   33636   33648   33633   33651       1   33636   33648   33657   33666       1
   33636   33648   33657   33669       1   33633   33648   33657   33666       1
   33633   33648   33657   33669       1   33633   33651  -33660   33666       1
   33627   33612   33633   33648       1   33627   33612   33633   33651       1
   33615   33597   33612   33627       1   33615   33597   33612   33633       1
   33615   33636  -33648   33633       1   33615   33636   33648   33657       1
   33612   33597   33615   33636       1   33612   33633  -33648   33636       1
   33612   33633   33648   33657       1   33612   33633   33651   33660       1
   33609   33594   33606   33618       1   33609   33627   33612   33633       1
   33606   33594   33609   33627       1   33597   33588   33591   33600       1
   33597   33588   33594   33606       1   33597   33588   33594   33609       1
   33597   33612  -33627   33609       1   33597   33612   33633   33648       1
   33597   33612   33633   33651       1   33597   33615  -33636   33648       1
   33594   33588   33591   33600       1   33594   33588   33597   33612       1
   33594   33588   33597   33615       1   33594   33606  -33618   33600       1
   33594   33609  -33627   33612       1   33591   33588   33594   33606       1
   33591   33588   33594   33609       1   33591   33588   33597   33612       1
   33591   33588   33597   33615       1   33591   33600  -33618   33606       1
   33588   33591   33600   33618       1   33588   33594  -33606   33618       1
   33588   33594   33609   33627       1   33588   33597  -33612   33627       1
   33588   33597   33612   33633       1   33588   33597   33615   33636       1
   33777   33765   33774   33783       1   33777   33786  -33792   33783       1
   33774   33765   33777   33786       1   33774   33783  -33792   33786       1
   33768   33774   33765   33777       1   33768   33774   33783   33792       1
   33765   33774   33783   33792       1   33765   33777  -33786   33792       1
   33759   33741   33756   33765       1   33759   33768  -33774   33765       1
   33759   33768   33774   33783       1   33756   33741   33759   33768       1
   33756   33765  -33774   33768       1   33756   33765   33774   33783       1
   33756   33765   33777   33786       1   33744   33756   33741   33759       1
   33744   33756   33765   33774       1   33744   33756   33765   33777       1
   33741   33756   33765   33774       1   33741   33756   33765   33777       1
   33741   33759  -33768   33774       1   33735   33720   33741   33756       1
   33735   33720   33741   33759       1   33723   33705   33720   33735       1
   33723   33705   33720   33741       1   33723   33744  -33756   33741       1
   33723   33744   33756   33765       1   33720   33705   33723   33744       1
   33720   33741  -33756   33744       1   33720   33741   33756   33765       1
   33720   33741   33759   33768       1   33717   33702   33714   33726       1
   33717   33735   33720   33741       1   33714   33702   33717   33735       1
   33705   33696   33699   33708       1   33705   33696   33702   33714       1
   33705   33696   33702   33717       1   33705   33720  -33735   33717       1
   33705   33720   33741   33756       1   33705   33720   33741   33759       1
   33705   33723  -33744   33756       1   33702   33696   33699   33708       1
   33702   33696   33705   33720       1   33702   33696   33705   33723       1
   33702   33714  -33726   33708       1   33702   33717  -33735   33720       1
   33699   33696   33702   33714       1   33699   33696   33702   33717       1
   33699   33696   33705   33720       1   33699   33696   33705   33723       1
   33699   33708  -33726   33714       1   33696   33699   33708   33726       1
   33696   33702  -33714   33726       1   33696   33702   33717   33735       1
   33696   33705  -33720   33735       1   33696   33705   33720   33741       1
   33696   33705   33723   33744       1   33885   33873   33882   33891       1
   33885   33894  -33900   33891       1   33882   33873   33885   33894       1
   33882   33891  -33900   33894       1   33876   33882   33873   33885       1
   33876   33882   33891   33900       1   33873   33882   33891   33900       1
   33873   33885  -33894   33900       1   33867   33849   33864   33873       1
   33867   33876  -33882   33873       1   33867   33876   33882   33891       1
   33864   33849   33867   33876       1   33864   33873  -33882   33876       1
   33864   33873   33882   33891       1   33864   33873   33885   33894       1
   33852   33864   33849   33867       1   33852   33864   33873   33882       1
   33852   33864   33873   33885       1   33849   33864   33873   33882       1
   33849   33864   33873   33885       1   33849   33867  -33876   33882       1
   33843   33828   33849   33864       1   33843   33828   33849   33867       1
   33831   33813   33828   33843       1   33831   33813   33828   33849       1
   33831   33852  -33864   33849       1   33831   33852   33864   33873       1
   33828   33813   33831   33852       1   33828   33849  -33864   33852       1
   33828   33849   33864   33873       1   33828   33849   33867   33876       1
   33825   33810   33822   33834       1   33825   33843   33828   33849       1
   33822   33810   33825   33843       1   33813   33804   33807   33816       1
   33813   33804   33810   33822       1   33813   33804   33810   33825       1
   33813   33828  -33843   33825       1   33813   33828   33849   33864       1
   33813   33828   33849   33867       1   33813   33831  -33852   33864       1
   33810   33804   33807   33816       1   33810   33804   33813   33828       1
   33810   33804   33813   33831       1   33810   33822  -33834   33816       1
   33810   33825  -33843   33828       1   33807   33804   33810   33822       1
   33807   33804   33810   33825       1   33807   33804   33813   33828       1
   33807   33804   33813   33831       1   33807   33816  -33834   33822       1
   33804   33807   33816   33834       1   33804   33810  -33822   33834       1
   33804   33810   33825   33843       1   33804   33813  -33828   33843       1
   33804   33813   33828   33849       1   33804   33813   33831   33852       1
   33993   33981   33990   33999       1   33993   34002  -34008   33999       1
   33990   33981   33993   34002       1   33990   33999  -34008   34002       1
   33984   33990   33981   33993       1   33984   33990   33999   34008       1
   33981   33990   33999   34008       1   33981   33993  -34002   34008       1
   33975   33957   33972   33981       1   33975   33984  -33990   33981       1
   33975   33984   33990   33999       1   33972   33957   33975   33984       1
   33972   33981  -33990   33984       1   33972   33981   33990   33999       1
   33972   33981   33993   34002       1   33960   33972   33957   33975       1
   33960   33972   33981   33990       1   33960   33972   33981   33993       1
   33957   33972   33981   33990       1   33957   33972   33981   33993       1
   33957   33975  -33984   33990       1   33951   33936   33957   33972       1
   33951   33936   33957   33975       1   33939   33921   33936   33951       1
   33939   33921   33936   33957       1   33939   33960  -33972   33957       1
   33939   33960   33972   33981       1   33936   33921   33939   33960       1
   33936   33957  -33972   33960       1   33936   33957   33972   33981       1
   33936   33957   33975   33984       1   33933   33918   33930   33942       1
   33933   33951   33936   33957       1   33930   33918   33933   33951       1
   33921   33912   33915   33924       1   33921   33912   33918   33930       1
   33921   33912   33918   33933       1   33921   33936  -33951   33933       1
   33921   33936   33957   33972       1   33921   33936   33957   33975       1
   33921   33939  -33960   33972       1   33918   33912   33915   33924       1
   33918   33912   33921   33936       1   33918   33912   33921   33939       1
   33918   33930  -33942   33924       1   33918   33933  -33951   33936       1
   33915   33912   33918   33930       1   33915   33912   33918   33933       1
   33915   33912   33921   33936       1   33915   33912   33921   33939       1
   33915   33924  -33942   33930       1   33912   33915   33924   33942       1
   33912   33918  -33930   33942       1   33912   33918   33933   33951       1
   33912   33921  -33936   33951       1   33912   33921   33936   33957       1
   33912   33921   33939   33960       1   34101   34089   34098   34107       1
   34101   34110  -34116   34107       1   34098   34089   34101   34110       1
   34098   34107  -34116   34110       1   34092   34098   34089   34101       1
   34092   34098   34107   34116       1   34089   34098   34107   34116       1
   34089   34101  -34110   34116       1   34083   34065   34080   34089       1
   34083   34092  -34098   34089       1   34083   34092   34098   34107       1
   34080   34065   34083   34092       1   34080   34089  -34098   34092       1
   34080   34089   34098   34107       1   34080   34089   34101   34110       1
   34068   34080   34065   34083       1   34068   34080   34089   34098       1
   34068   34080   34089   34101       1   34065   34080   34089   34098       1
   34065   34080   34089   34101       1   34065   34083  -34092   34098       1
   34059   34044   34065   34080       1   34059   34044   34065   34083       1
   34047   34029   34044   34059       1   34047   34029   34044   34065       1
   34047   34068  -34080   34065       1   34047   34068   34080   34089       1
   34044   34029   34047   34068       1   34044   34065  -34080   34068       1
   34044   34065   34080   34089       1   34044   34065   34083   34092       1
   34041   34026   34038   34050       1   34041   34059   34044   34065       1
   34038   34026   34041   34059       1   34029   34020   34023   34032       1
   34029   34020   34026   34038       1   34029   34020   34026   34041       1
   34029   34044  -34059   34041       1   34029   34044   34065   34080       1
   34029   34044   34065   34083       1   34029   34047  -34068   34080       1
   34026   34020   34023   34032       1   34026   34020   34029   34044       1
   34026   34020   34029   34047       1   34026   34038  -34050   34032       1
   34026   34041  -34059   34044       1   34023   34020   34026   34038       1
   34023   34020   34026   34041       1   34023   34020   34029   34044       1
   34023   34020   34029   34047       1   34023   34032  -34050   34038       1
   34020   34023   34032   34050       1   34020   34026  -34038   34050       1
   34020   34026   34041   34059       1   34020   34029  -34044   34059       1
   34020   34029   34044   34065       1   34020   34029   34047   34068       1
   34209   34197   34206   34215       1   34209   34218  -34224   34215       1
   34206   34197   34209   34218       1   34206   34215  -34224   34218       1
   34200   34206   34197   34209       1   34200   34206   34215   34224       1
   34197   34206   34215   34224       1   34197   34209  -34218   34224       1
   34191   34173   34188   34197       1   34191   34200  -34206   34197       1
   34191   34200   34206   34215       1   34188   34173   34191   34200       1
   34188   34197  -34206   34200       1   34188   34197   34206   34215       1
   34188   34197   34209   34218       1   34176   34188   34173   34191       1
   34176   34188   34197   34206       1   34176   34188   34197   34209       1
   34173   34188   34197   34206       1   34173   34188   34197   34209       1
   34173   34191  -34200   34206       1   34167   34152   34173   34188       1
   34167   34152   34173   34191       1   34155   34137   34152   34167       1
   34155   34137   34152   34173       1   34155   34176  -34188   34173       1
   34155   34176   34188   34197       1   34152   34137   34155   34176       1
   34152   34173  -34188   34176       1   34152   34173   34188   34197       1
   34152   34173   34191   34200       1   34149   34134   34146   34158       1
   34149   34167   34152   34173       1   34146   34134   34149   34167       1
   34137   34128   34131   34140       1   34137   34128   34134   34146       1
   34137   34128   34134   34149       1   34137   34152  -34167   34149       1
   34137   34152   34173   34188       1   34137   34152   34173   34191       1
   34137   34155  -34176   34188       1   34134   34128   34131   34140       1
   34134   34128   34137   34152       1   34134   34128   34137   34155       1
   34134   34146  -34158   34140       1   34134   34149  -34167   34152       1
   34131   34128   34134   34146       1   34131   34128   34134   34149       1
   34131   34128   34137   34152       1   34131   34128   34137   34155       1
   34131   34140  -34158   34146       1   34128   34131   34140   34158       1
   34128   34134  -34146   34158       1   34128   34134   34149   34167       1
   34128   34137  -34152   34167       1   34128   34137   34152   34173       1
   34128   34137   34155   34176       1   34317   34305   34314   34323       1
   34317   34326  -34332   34323       1   34314   34305   34317   34326       1
   34314   34323  -34332   34326       1   34308   34314   34305   34317       1
   34308   34314   34323   34332       1   34305   34314   34323   34332       1
   34305   34317  -34326   34332       1   34299   34281   34296   34305       1
   34299   34308  -34314   34305       1   34299   34308   34314   34323       1
   34296   34281   34299   34308       1   34296   34305  -34314   34308       1
   34296   34305   34314   34323       1   34296   34305   34317   34326       1
   34284   34296   34281   34299       1   34284   34296   34305   34314       1
   34284   34296   34305   34317       1   34281   34296   34305   34314       1
   34281   34296   34305   34317       1   34281   34299  -34308   34314       1
   34275   34260   34281   34296       1   34275   34260   34281   34299       1
   34263   34245   34260   34275       1   34263   34245   34260   34281       1
   34263   34284  -34296   34281       1   34263   34284   34296   34305       1
   34260   34245   34263   34284       1   34260   34281  -34296   34284       1
   34260   34281   34296   34305       1   34260   34281   34299   34308       1
   34257   34242   34254   34266       1   34257   34275   34260   34281       1
   34254   34242   34257   34275       1   34245   34236   34239   34248       1
   34245   34236   34242   34254       1   34245   34236   34242   34257       1
   34245   34260  -34275   34257       1   34245   34260   34281   34296       1
   34245   34260   34281   34299       1   34245   34263  -34284   34296       1
   34242   34236   34239   34248       1   34242   34236   34245   34260       1
   34242   34236   34245   34263       1   34242   34254  -34266   34248       1
   34242   34257  -34275   34260       1   34239   34236   34242   34254       1
   34239   34236   34242   34257       1   34239   34236   34245   34260       1
   34239   34236   34245   34263       1   34239   34248  -34266   34254       1
   34236   34239   34248   34266       1   34236   34242  -34254   34266       1
   34236   34242   34257   34275       1   34236   34245  -34260   34275       1
   34236   34245   34260   34281       1   34236   34245   34263   34284       1
   34425   34413   34422   34431       1   34425   34434  -34440   34431       1
   34422   34413   34425   34434       1   34422   34431  -34440   34434       1
   34416   34422   34413   34425       1   34416   34422   34431   34440       1
   34413   34422   34431   34440       1   34413   34425  -34434   34440       1
   34407   34389   34404   34413       1   34407   34416  -34422   34413       1
   34407   34416   34422   34431       1   34404   34389   34407   34416       1
   34404   34413  -34422   34416       1   34404   34413   34422   34431       1
   34404   34413   34425   34434       1   34392   34404   34389   34407       1
   34392   34404   34413   34422       1   34392   34404   34413   34425       1
   34389   34404   34413   34422       1   34389   34404   34413   34425       1
   34389   34407  -34416   34422       1   34383   34368   34389   34404       1
   34383   34368   34389   34407       1   34371   34353   34368   34383       1
   34371   34353   34368   34389       1   34371   34392  -34404   34389       1
   34371   34392   34404   34413       1   34368   34353   34371   34392       1
   34368   34389  -34404   34392       1   34368   34389   34404   34413       1
   34368   34389   34407   34416       1   34365   34350   34362   34374       1
   34365   34383   34368   34389       1   34362   34350   34365   34383       1
   34353   34344   34347   34356       1   34353   34344   34350   34362       1
   34353   34344   34350   34365       1   34353   34368  -34383   34365       1
   34353   34368   34389   34404       1   34353   34368   34389   34407       1
   34353   34371  -34392   34404       1   34350   34344   34347   34356       1
   34350   34344   34353   34368       1   34350   34344   34353   34371       1
   34350   34362  -34374   34356       1   34350   34365  -34383   34368       1
   34347   34344   34350   34362       1   34347   34344   34350   34365       1
   34347   34344   34353   34368       1   34347   34344   34353   34371       1
   34347   34356  -34374   34362       1   34344   34347   34356   34374       1
   34344   34350  -34362   34374       1   34344   34350   34365   34383       1
   34344   34353  -34368   34383       1   34344   34353   34368   34389       1
   34344   34353   34371   34392       1   34533   34521   34530   34539       1
   34533   34542  -34548   34539       1   34530   34521   34533   34542       1
   34530   34539  -34548   34542       1   34524   34530   34521   34533       1
   34524   34530   34539   34548       1   34521   34530   34539   34548       1
   34521   34533  -34542   34548       1   34515   34497   34512   34521       1
   34515   34524  -34530   34521       1   34515   34524   34530   34539       1
   34512   34497   34515   34524       1   34512   34521  -34530   34524       1
   34512   34521   34530   34539       1   34512   34521   34533   34542       1
   34500   34512   34497   34515       1   34500   34512   34521   34530       1
   34500   34512   34521   34533       1   34497   34512   34521   34530       1
   34497   34512   34521   34533       1   34497   34515  -34524   34530       1
   34491   34476   34497   34512       1   34491   34476   34497   34515       1
   34479   34461   34476   34491       1   34479   34461   34476   34497       1
   34479   34500  -34512   34497       1   34479   34500   34512   34521       1
   34476   34461   34479   34500       1   34476   34497  -34512   34500       1
   34476   34497   34512   34521       1   34476   34497   34515   34524       1
   34473   34458   34470   34482       1   34473   34491   34476   34497       1
   34470   34458   34473   34491       1   34461   34452   34455   34464       1
   34461   34452   34458   34470       1   34461   34452   34458   34473       1
   34461   34476  -34491   34473       1   34461   34476   34497   34512       1
   34461   34476   34497   34515       1   34461   34479  -34500   34512       1
   34458   34452   34455   34464       1   34458   34452   34461   34476       1
   34458   34452   34461   34479       1   34458   34470  -34482   34464       1
   34458   34473  -34491   34476       1   34455   34452   34458   34470       1
   34455   34452   34458   34473       1   34455   34452   34461   34476       1
   34455   34452   34461   34479       1   34455   34464  -34482   34470       1
   34452   34455   34464   34482       1   34452   34458  -34470   34482       1
   34452   34458   34473   34491       1   34452   34461  -34476   34491       1
   34452   34461   34476   34497       1   34452   34461   34479   34500       1
   34641   34629   34638   34647       1   34641   34650  -34656   34647       1
   34638   34629   34641   34650       1   34638   34647  -34656   34650       1
   34632   34638   34629   34641       1   34632   34638   34647   34656       1
   34629   34638   34647   34656       1   34629   34641  -34650   34656       1
   34623   34605   34620   34629       1   34623   34632  -34638   34629       1
   34623   34632   34638   34647       1   34620   34605   34623   34632       1
   34620   34629  -34638   34632       1   34620   34629   34638   34647       1
   34620   34629   34641   34650       1   34608   34620   34605   34623       1
   34608   34620   34629   34638       1   34608   34620   34629   34641       1
   34605   34620   34629   34638       1   34605   34620   34629   34641       1
   34605   34623  -34632   34638       1   34599   34584   34605   34620       1
   34599   34584   34605   34623       1   34587   34569   34584   34599       1
   34587   34569   34584   34605       1   34587   34608  -34620   34605       1
   34587   34608   34620   34629       1   34584   34569   34587   34608       1
   34584   34605  -34620   34608       1   34584   34605   34620   34629       1
   34584   34605   34623   34632       1   34581   34566   34578   34590       1
   34581   34599   34584   34605       1   34578   34566   34581   34599       1
   34569   34560   34563   34572       1   34569   34560   34566   34578       1
   34569   34560   34566   34581       1   34569   34584  -34599   34581       1
   34569   34584   34605   34620       1   34569   34584   34605   34623       1
   34569   34587  -34608   34620       1   34566   34560   34563   34572       1
   34566   34560   34569   34584       1   34566   34560   34569   34587       1
   34566   34578  -34590   34572       1   34566   34581  -34599   34584       1
   34563   34560   34566   34578       1   34563   34560   34566   34581       1
   34563   34560   34569   34584       1   34563   34560   34569   34587       1
   34563   34572  -34590   34578       1   34560   34563   34572   34590       1
   34560   34566  -34578   34590       1   34560   34566   34581   34599       1
   34560   34569  -34584   34599       1   34560   34569   34584   34605       1
   34560   34569   34587   34608       1   34749   34737   34746   34755       1
   34749   34758  -34764   34755       1   34746   34737   34749   34758       1
   34746   34755  -34764   34758       1   34740   34746   34737   34749       1
   34740   34746   34755   34764       1   34737   34746   34755   34764       1
   34737   34749  -34758   34764       1   34731   34713   34728   34737       1
   34731   34740  -34746   34737       1   34731   34740   34746   34755       1
   34728   34713   34731   34740       1   34728   34737  -34746   34740       1
   34728   34737   34746   34755       1   34728   34737   34749   34758       1
   34716   34728   34713   34731       1   34716   34728   34737   34746       1
   34716   34728   34737   34749       1   34713   34728   34737   34746       1
   34713   34728   34737   34749       1   34713   34731  -34740   34746       1
   34707   34692   34713   34728       1   34707   34692   34713   34731       1
   34695   34677   34692   34707       1   34695   34677   34692   34713       1
   34695   34716  -34728   34713       1   34695   34716   34728   34737       1
   34692   34677   34695   34716       1   34692   34713  -34728   34716       1
   34692   34713   34728   34737       1   34692   34713   34731   34740       1
   34689   34674   34686   34698       1   34689   34707   34692   34713       1
   34686   34674   34689   34707       1   34677   34668   34671   34680       1
   34677   34668   34674   34686       1   34677   34668   34674   34689       1
   34677   34692  -34707   34689       1   34677   34692   34713   34728       1
   34677   34692   34713   34731       1   34677   34695  -34716   34728       1
   34674   34668   34671   34680       1   34674   34668   34677   34692       1
   34674   34668   34677   34695       1   34674   34686  -34698   34680       1
   34674   34689  -34707   34692       1   34671   34668   34674   34686       1
   34671   34668   34674   34689       1   34671   34668   34677   34692       1
   34671   34668   34677   34695       1   34671   34680  -34698   34686       1
   34668   34671   34680   34698       1   34668   34674  -34686   34698       1
   34668   34674   34689   34707       1   34668   34677  -34692   34707       1
   34668   34677   34692   34713       1   34668   34677   34695   34716       1
   34857   34845   34854   34863       1   34857   34866  -34872   34863       1
   34854   34845   34857   34866       1   34854   34863  -34872   34866       1
   34848   34854   34845   34857       1   34848   34854   34863   34872       1
   34845   34854   34863   34872       1   34845   34857  -34866   34872       1
   34839   34821   34836   34845       1   34839   34848  -34854   34845       1
   34839   34848   34854   34863       1   34836   34821   34839   34848       1
   34836   34845  -34854   34848       1   34836   34845   34854   34863       1
   34836   34845   34857   34866       1   34824   34836   34821   34839       1
   34824   34836   34845   34854       1   34824   34836   34845   34857       1
   34821   34836   34845   34854       1   34821   34836   34845   34857       1
   34821   34839  -34848   34854       1   34815   34800   34821   34836       1
   34815   34800   34821   34839       1   34803   34785   34800   34815       1
   34803   34785   34800   34821       1   34803   34824  -34836   34821       1
   34803   34824   34836   34845       1   34800   34785   34803   34824       1
   34800   34821  -34836   34824       1   34800   34821   34836   34845       1
   34800   34821   34839   34848       1   34797   34782   34794   34806       1
   34797   34815   34800   34821       1   34794   34782   34797   34815       1
   34785   34776   34779   34788       1   34785   34776   34782   34794       1
   34785   34776   34782   34797       1   34785   34800  -34815   34797       1
   34785   34800   34821   34836       1   34785   34800   34821   34839       1
   34785   34803  -34824   34836       1   34782   34776   34779   34788       1
   34782   34776   34785   34800       1   34782   34776   34785   34803       1
   34782   34794  -34806   34788       1   34782   34797  -34815   34800       1
   34779   34776   34782   34794       1   34779   34776   34782   34797       1
   34779   34776   34785   34800       1   34779   34776   34785   34803       1
   34779   34788  -34806   34794       1   34776   34779   34788   34806       1
   34776   34782  -34794   34806       1   34776   34782   34797   34815       1
   34776   34785  -34800   34815       1   34776   34785   34800   34821       1
   34776   34785   34803   34824       1   34965   34953   34962   34971       1
   34965   34974  -34980   34971       1   34962   34953   34965   34974       1
   34962   34971  -34980   34974       1   34956   34962   34953   34965       1
   34956   34962   34971   34980       1   34953   34962   34971   34980       1
   34953   34965  -34974   34980       1   34947   34929   34944   34953       1
   34947   34956  -34962   34953       1   34947   34956   34962   34971       1
   34944   34929   34947   34956       1   34944   34953  -34962   34956       1
   34944   34953   34962   34971       1   34944   34953   34965   34974       1
   34932   34944   34929   34947       1   34932   34944   34953   34962       1
   34932   34944   34953   34965       1   34929   34944   34953   34962       1
   34929   34944   34953   34965       1   34929   34947  -34956   34962       1
   34923   34908   34929   34944       1   34923   34908   34929   34947       1
   34911   34893   34908   34923       1   34911   34893   34908   34929       1
   34911   34932  -34944   34929       1   34911   34932   34944   34953       1
   34908   34893   34911   34932       1   34908   34929  -34944   34932       1
   34908   34929   34944   34953       1   34908   34929   34947   34956       1
   34905   34890   34902   34914       1   34905   34923   34908   34929       1
   34902   34890   34905   34923       1   34893   34884   34887   34896       1
   34893   34884   34890   34902       1   34893   34884   34890   34905       1
   34893   34908  -34923   34905       1   34893   34908   34929   34944       1
   34893   34908   34929   34947       1   34893   34911  -34932   34944       1
   34890   34884   34887   34896       1   34890   34884   34893   34908       1
   34890   34884   34893   34911       1   34890   34902  -34914   34896       1
   34890   34905  -34923   34908       1   34887   34884   34890   34902       1
   34887   34884   34890   34905       1   34887   34884   34893   34908       1
   34887   34884   34893   34911       1   34887   34896  -34914   34902       1
   34884   34887   34896   34914       1   34884   34890  -34902   34914       1
   34884   34890   34905   34923       1   34884   34893  -34908   34923       1
   34884   34893   34908   34929       1   34884   34893   34911   34932       1
   35073   35061   35070   35079       1   35073   35082  -35088   35079       1
   35070   35061   35073   35082       1   35070   35079  -35088   35082       1
   35064   35070   35061   35073       1   35064   35070   35079   35088       1
   35061   35070   35079   35088       1   35061   35073  -35082   35088       1
   35055   35037   35052   35061       1   35055   35064  -35070   35061       1
   35055   35064   35070   35079       1   35052   35037   35055   35064       1
   35052   35061  -35070   35064       1   35052   35061   35070   35079       1
   35052   35061   35073   35082       1   35040   35052   35037   35055       1
   35040   35052   35061   35070       1   35040   35052   35061   35073       1
   35037   35052   35061   35070       1   35037   35052   35061   35073       1
   35037   35055  -35064   35070       1   35031   35016   35037   35052       1
   35031   35016   35037   35055       1   35019   35001   35016   35031       1
   35019   35001   35016   35037       1   35019   35040  -35052   35037       1
   35019   35040   35052   35061       1   35016   35001   35019   35040       1
   35016   35037  -35052   35040       1   35016   35037   35052   35061       1
   35016   35037   35055   35064       1   35013   34998   35010   35022       1
   35013   35031   35016   35037       1   35010   34998   35013   35031       1
   35001   34992   34995   35004       1   35001   34992   34998   35010       1
   35001   34992   34998   35013       1   35001   35016  -35031   35013       1
   35001   35016   35037   35052       1   35001   35016   35037   35055       1
   35001   35019  -35040   35052       1   34998   34992   34995   35004       1
   34998   34992   35001   35016       1   34998   34992   35001   35019       1
   34998   35010  -35022   35004       1   34998   35013  -35031   35016       1
   34995   34992   34998   35010       1   34995   34992   34998   35013       1
   34995   34992   35001   35016       1   34995   34992   35001   35019       1
   34995   35004  -35022   35010       1   34992   34995   35004   35022       1
   34992   34998  -35010   35022       1   34992   34998   35013   35031       1
   34992   35001  -35016   35031       1   34992   35001   35016   35037       1
   34992   35001   35019   35040       1   35181   35169   35178   35187       1
   35181   35190  -35196   35187       1   35178   35169   35181   35190       1
   35178   35187  -35196   35190       1   35172   35178   35169   35181       1
   35172   35178   35187   35196       1   35169   35178   35187   35196       1
   35169   35181  -35190   35196       1   35163   35145   35160   35169       1
   35163   35172  -35178   35169       1   35163   35172   35178   35187       1
   35160   35145   35163   35172       1   35160   35169  -35178   35172       1
   35160   35169   35178   35187       1   35160   35169   35181   35190       1
   35148   35160   35145   35163       1   35148   35160   35169   35178       1
   35148   35160   35169   35181       1   35145   35160   35169   35178       1
   35145   35160   35169   35181       1   35145   35163  -35172   35178       1
   35139   35124   35145   35160       1   35139   35124   35145   35163       1
   35127   35109   35124   35139       1   35127   35109   35124   35145       1
   35127   35148  -35160   35145       1   35127   35148   35160   35169       1
   35124   35109   35127   35148       1   35124   35145  -35160   35148       1
   35124   35145   35160   35169       1   35124   35145   35163   35172       1
   35121   35106   35118   35130       1   35121   35139   35124   35145       1
   35118   35106   35121   35139       1   35109   35100   35103   35112       1
   35109   35100   35106   35118       1   35109   35100   35106   35121       1
   35109   35124  -35139   35121       1   35109   35124   35145   35160       1
   35109   35124   35145   35163       1   35109   35127  -35148   35160       1
   35106   35100   35103   35112       1   35106   35100   35109   35124       1
   35106   35100   35109   35127       1   35106   35118  -35130   35112       1
   35106   35121  -35139   35124       1   35103   35100   35106   35118       1
   35103   35100   35106   35121       1   35103   35100   35109   35124       1
   35103   35100   35109   35127       1   35103   35112  -35130   35118       1
   35100   35103   35112   35130       1   35100   35106  -35118   35130       1
   35100   35106   35121   35139       1   35100   35109  -35124   35139       1
   35100   35109   35124   35145       1   35100   35109   35127   35148       1
   35289   35277   35286   35295       1   35289   35298  -35304   35295       1
   35286   35277   35289   35298       1   35286   35295  -35304   35298       1
   35280   35286   35277   35289       1   35280   35286   35295   35304       1
   35277   35286   35295   35304       1   35277   35289  -35298   35304       1
   35271   35253   35268   35277       1   35271   35280  -35286   35277       1
   35271   35280   35286   35295       1   35268   35253   35271   35280       1
   35268   35277  -35286   35280       1   35268   35277   35286   35295       1
   35268   35277   35289   35298       1   35256   35268   35253   35271       1
   35256   35268   35277   35286       1   35256   35268   35277   35289       1
   35253   35268   35277   35286       1   35253   35268   35277   35289       1
   35253   35271  -35280   35286       1   35247   35232   35253   35268       1
   35247   35232   35253   35271       1   35235   35217   35232   35247       1
   35235   35217   35232   35253       1   35235   35256  -35268   35253       1
   35235   35256   35268   35277       1   35232   35217   35235   35256       1
   35232   35253  -35268   35256       1   35232   35253   35268   35277       1
   35232   35253   35271   35280       1   35229   35214   35226   35238       1
   35229   35247   35232   35253       1   35226   35214   35229   35247       1
   35217   35208   35211   35220       1   35217   35208   35214   35226       1
   35217   35208   35214   35229       1   35217   35232  -35247   35229       1
   35217   35232   35253   35268       1   35217   35232   35253   35271       1
   35217   35235  -35256   35268       1   35214   35208   35211   35220       1
   35214   35208   35217   35232       1   35214   35208   35217   35235       1
   35214   35226  -35238   35220       1   35214   35229  -35247   35232       1
   35211   35208   35214   35226       1   35211   35208   35214   35229       1
   35211   35208   35217   35232       1   35211   35208   35217   35235       1
   35211   35220  -35238   35226       1   35208   35211   35220   35238       1
   35208   35214  -35226   35238       1   35208   35214   35229   35247       1
   35208   35217  -35232   35247       1   35208   35217   35232   35253       1
   35208   35217   35235   35256       1   35397   35385   35394   35403       1
   35397   35406  -35412   35403       1   35394   35385   35397   35406       1
   35394   35403  -35412   35406       1   35388   35394   35385   35397       1
   35388   35394   35403   35412       1   35385   35394   35403   35412       1
   35385   35397  -35406   35412       1   35379   35361   35376   35385       1
   35379   35388  -35394   35385       1   35379   35388   35394   35403       1
   35376   35361   35379   35388       1   35376   35385  -35394   35388       1
   35376   35385   35394   35403       1   35376   35385   35397   35406       1
   35364   35376   35361   35379       1   35364   35376   35385   35394       1
   35364   35376   35385   35397       1   35361   35376   35385   35394       1
   35361   35376   35385   35397       1   35361   35379  -35388   35394       1
   35355   35340   35361   35376       1   35355   35340   35361   35379       1
   35343   35325   35340   35355       1   35343   35325   35340   35361       1
   35343   35364  -35376   35361       1   35343   35364   35376   35385       1
   35340   35325   35343   35364       1   35340   35361  -35376   35364       1
   35340   35361   35376   35385       1   35340   35361   35379   35388       1
   35337   35322   35334   35346       1   35337   35355   35340   35361       1
   35334   35322   35337   35355       1   35325   35316   35319   35328       1
   35325   35316   35322   35334       1   35325   35316   35322   35337       1
   35325   35340  -35355   35337       1   35325   35340   35361   35376       1
   35325   35340   35361   35379       1   35325   35343  -35364   35376       1
   35322   35316   35319   35328       1   35322   35316   35325   35340       1
   35322   35316   35325   35343       1   35322   35334  -35346   35328       1
   35322   35337  -35355   35340       1   35319   35316   35322   35334       1
   35319   35316   35322   35337       1   35319   35316   35325   35340       1
   35319   35316   35325   35343       1   35319   35328  -35346   35334       1
   35316   35319   35328   35346       1   35316   35322  -35334   35346       1
   35316   35322   35337   35355       1   35316   35325  -35340   35355       1
   35316   35325   35340   35361       1   35316   35325   35343   35364       1
   35505   35493   35502   35511       1   35505   35514  -35520   35511       1
   35502   35493   35505   35514       1   35502   35511  -35520   35514       1
   35496   35502   35493   35505       1   35496   35502   35511   35520       1
   35493   35502   35511   35520       1   35493   35505  -35514   35520       1
   35487   35469   35484   35493       1   35487   35496  -35502   35493       1
   35487   35496   35502   35511       1   35484   35469   35487   35496       1
   35484   35493  -35502   35496       1   35484   35493   35502   35511       1
   35484   35493   35505   35514       1   35472   35484   35469   35487       1
   35472   35484   35493   35502       1   35472   35484   35493   35505       1
   35469   35484   35493   35502       1   35469   35484   35493   35505       1
   35469   35487  -35496   35502       1   35463   35448   35469   35484       1
   35463   35448   35469   35487       1   35451   35433   35448   35463       1
   35451   35433   35448   35469       1   35451   35472  -35484   35469       1
   35451   35472   35484   35493       1   35448   35433   35451   35472       1
   35448   35469  -35484   35472       1   35448   35469   35484   35493       1
   35448   35469   35487   35496       1   35445   35430   35442   35454       1
   35445   35463   35448   35469       1   35442   35430   35445   35463       1
   35433   35424   35427   35436       1   35433   35424   35430   35442       1
   35433   35424   35430   35445       1   35433   35448  -35463   35445       1
   35433   35448   35469   35484       1   35433   35448   35469   35487       1
   35433   35451  -35472   35484       1   35430   35424   35427   35436       1
   35430   35424   35433   35448       1   35430   35424   35433   35451       1
   35430   35442  -35454   35436       1   35430   35445  -35463   35448       1
   35427   35424   35430   35442       1   35427   35424   35430   35445       1
   35427   35424   35433   35448       1   35427   35424   35433   35451       1
   35427   35436  -35454   35442       1   35424   35427   35436   35454       1
   35424   35430  -35442   35454       1   35424   35430   35445   35463       1
   35424   35433  -35448   35463       1   35424   35433   35448   35469       1
   35424   35433   35451   35472       1   35613   35601   35610   35619       1
   35613   35622  -35628   35619       1   35610   35601   35613   35622       1
   35610   35619  -35628   35622       1   35604   35610   35601   35613       1
   35604   35610   35619   35628       1   35601   35610   35619   35628       1
   35601   35613  -35622   35628       1   35595   35577   35592   35601       1
   35595   35604  -35610   35601       1   35595   35604   35610   35619       1
   35592   35577   35595   35604       1   35592   35601  -35610   35604       1
   35592   35601   35610   35619       1   35592   35601   35613   35622       1
   35580   35592   35577   35595       1   35580   35592   35601   35610       1
   35580   35592   35601   35613       1   35577   35592   35601   35610       1
   35577   35592   35601   35613       1   35577   35595  -35604   35610       1
   35571   35556   35577   35592       1   35571   35556   35577   35595       1
   35559   35541   35556   35571       1   35559   35541   35556   35577       1
   35559   35580  -35592   35577       1   35559   35580   35592   35601       1
   35556   35541   35559   35580       1   35556   35577  -35592   35580       1
   35556   35577   35592   35601       1   35556   35577   35595   35604       1
   35553   35538   35550   35562       1   35553   35571   35556   35577       1
   35550   35538   35553   35571       1   35541   35532   35535   35544       1
   35541   35532   35538   35550       1   35541   35532   35538   35553       1
   35541   35556  -35571   35553       1   35541   35556   35577   35592       1
   35541   35556   35577   35595       1   35541   35559  -35580   35592       1
   35538   35532   35535   35544       1   35538   35532   35541   35556       1
   35538   35532   35541   35559       1   35538   35550  -35562   35544       1
   35538   35553  -35571   35556       1   35535   35532   35538   35550       1
   35535   35532   35538   35553       1   35535   35532   35541   35556       1
   35535   35532   35541   35559       1   35535   35544  -35562   35550       1
   35532   35535   35544   35562       1   35532   35538  -35550   35562       1
   35532   35538   35553   35571       1   35532   35541  -35556   35571       1
   35532   35541   35556   35577       1   35532   35541   35559   35580       1
   35721   35709   35718   35727       1   35721   35730  -35736   35727       1
   35718   35709   35721   35730       1   35718   35727  -35736   35730       1
   35712   35718   35709   35721       1   35712   35718   35727   35736       1
   35709   35718   35727   35736       1   35709   35721  -35730   35736       1
   35703   35685   35700   35709       1   35703   35712  -35718   35709       1
   35703   35712   35718   35727       1   35700   35685   35703   35712       1
   35700   35709  -35718   35712       1   35700   35709   35718   35727       1
   35700   35709   35721   35730       1   35688   35700   35685   35703       1
   35688   35700   35709   35718       1   35688   35700   35709   35721       1
   35685   35700   35709   35718       1   35685   35700   35709   35721       1
   35685   35703  -35712   35718       1   35679   35664   35685   35700       1
   35679   35664   35685   35703       1   35667   35649   35664   35679       1
   35667   35649   35664   35685       1   35667   35688  -35700   35685       1
   35667   35688   35700   35709       1   35664   35649   35667   35688       1
   35664   35685  -35700   35688       1   35664   35685   35700   35709       1
   35664   35685   35703   35712       1   35661   35646   35658   35670       1
   35661   35679   35664   35685       1   35658   35646   35661   35679       1
   35649   35640   35643   35652       1   35649   35640   35646   35658       1
   35649   35640   35646   35661       1   35649   35664  -35679   35661       1
   35649   35664   35685   35700       1   35649   35664   35685   35703       1
   35649   35667  -35688   35700       1   35646   35640   35643   35652       1
   35646   35640   35649   35664       1   35646   35640   35649   35667       1
   35646   35658  -35670   35652       1   35646   35661  -35679   35664       1
   35643   35640   35646   35658       1   35643   35640   35646   35661       1
   35643   35640   35649   35664       1   35643   35640   35649   35667       1
   35643   35652  -35670   35658       1   35640   35643   35652   35670       1
   35640   35646  -35658   35670       1   35640   35646   35661   35679       1
   35640   35649  -35664   35679       1   35640   35649   35664   35685       1
   35640   35649   35667   35688       1   35829   35817   35826   35835       1
   35829   35838  -35844   35835       1   35826   35817   35829   35838       1
   35826   35835  -35844   35838       1   35820   35826   35817   35829       1
   35820   35826   35835   35844       1   35817   35826   35835   35844       1
   35817   35829  -35838   35844       1   35811   35793   35808   35817       1
   35811   35820  -35826   35817       1   35811   35820   35826   35835       1
   35808   35793   35811   35820       1   35808   35817  -35826   35820       1
   35808   35817   35826   35835       1   35808   35817   35829   35838       1
   35796   35808   35793   35811       1   35796   35808   35817   35826       1
   35796   35808   35817   35829       1   35793   35808   35817   35826       1
   35793   35808   35817   35829       1   35793   35811  -35820   35826       1
   35787   35772   35793   35808       1   35787   35772   35793   35811       1
   35775   35757   35772   35787       1   35775   35757   35772   35793       1
   35775   35796  -35808   35793       1   35775   35796   35808   35817       1
   35772   35757   35775   35796       1   35772   35793  -35808   35796       1
   35772   35793   35808   35817       1   35772   35793   35811   35820       1
   35769   35754   35766   35778       1   35769   35787   35772   35793       1
   35766   35754   35769   35787       1   35757   35748   35751   35760       1
   35757   35748   35754   35766       1   35757   35748   35754   35769       1
   35757   35772  -35787   35769       1   35757   35772   35793   35808       1
   35757   35772   35793   35811       1   35757   35775  -35796   35808       1
   35754   35748   35751   35760       1   35754   35748   35757   35772       1
   35754   35748   35757   35775       1   35754   35766  -35778   35760       1
   35754   35769  -35787   35772       1   35751   35748   35754   35766       1
   35751   35748   35754   35769       1   35751   35748   35757   35772       1
   35751   35748   35757   35775       1   35751   35760  -35778   35766       1
   35748   35751   35760   35778       1   35748   35754  -35766   35778       1
   35748   35754   35769   35787       1   35748   35757  -35772   35787       1
   35748   35757   35772   35793       1   35748   35757   35775   35796       1
   35937   35925   35934   35943       1   35937   35946  -35952   35943       1
   35934   35925   35937   35946       1   35934   35943  -35952   35946       1
   35928   35934   35925   35937       1   35928   35934   35943   35952       1
   35925   35934   35943   35952       1   35925   35937  -35946   35952       1
   35919   35901   35916   35925       1   35919   35928  -35934   35925       1
   35919   35928   35934   35943       1   35916   35901   35919   35928       1
   35916   35925  -35934   35928       1   35916   35925   35934   35943       1
   35916   35925   35937   35946       1   35904   35916   35901   35919       1
   35904   35916   35925   35934       1   35904   35916   35925   35937       1
   35901   35916   35925   35934       1   35901   35916   35925   35937       1
   35901   35919  -35928   35934       1   35895   35880   35901   35916       1
   35895   35880   35901   35919       1   35883   35865   35880   35895       1
   35883   35865   35880   35901       1   35883   35904  -35916   35901       1
   35883   35904   35916   35925       1   35880   35865   35883   35904       1
   35880   35901  -35916   35904       1   35880   35901   35916   35925       1
   35880   35901   35919   35928       1   35877   35862   35874   35886       1
   35877   35895   35880   35901       1   35874   35862   35877   35895       1
   35865   35856   35859   35868       1   35865   35856   35862   35874       1
   35865   35856   35862   35877       1   35865   35880  -35895   35877       1
   35865   35880   35901   35916       1   35865   35880   35901   35919       1
   35865   35883  -35904   35916       1   35862   35856   35859   35868       1
   35862   35856   35865   35880       1   35862   35856   35865   35883       1
   35862   35874  -35886   35868       1   35862   35877  -35895   35880       1
   35859   35856   35862   35874       1   35859   35856   35862   35877       1
   35859   35856   35865   35880       1   35859   35856   35865   35883       1
   35859   35868  -35886   35874       1   35856   35859   35868   35886       1
   35856   35862  -35874   35886       1   35856   35862   35877   35895       1
   35856   35865  -35880   35895       1   35856   35865   35880   35901       1
   35856   35865   35883   35904       1   36045   36033   36042   36051       1
   36045   36054  -36060   36051       1   36042   36033   36045   36054       1
   36042   36051  -36060   36054       1   36036   36042   36033   36045       1
   36036   36042   36051   36060       1   36033   36042   36051   36060       1
   36033   36045  -36054   36060       1   36027   36009   36024   36033       1
   36027   36036  -36042   36033       1   36027   36036   36042   36051       1
   36024   36009   36027   36036       1   36024   36033  -36042   36036       1
   36024   36033   36042   36051       1   36024   36033   36045   36054       1
   36012   36024   36009   36027       1   36012   36024   36033   36042       1
   36012   36024   36033   36045       1   36009   36024   36033   36042       1
   36009   36024   36033   36045       1   36009   36027  -36036   36042       1
   36003   35988   36009   36024       1   36003   35988   36009   36027       1
   35991   35973   35988   36003       1   35991   35973   35988   36009       1
   35991   36012  -36024   36009       1   35991   36012   36024   36033       1
   35988   35973   35991   36012       1   35988   36009  -36024   36012       1
   35988   36009   36024   36033       1   35988   36009   36027   36036       1
   35985   35970   35982   35994       1   35985   36003   35988   36009       1
   35982   35970   35985   36003       1   35973   35964   35967   35976       1
   35973   35964   35970   35982       1   35973   35964   35970   35985       1
   35973   35988  -36003   35985       1   35973   35988   36009   36024       1
   35973   35988   36009   36027       1   35973   35991  -36012   36024       1
   35970   35964   35967   35976       1   35970   35964   35973   35988       1
   35970   35964   35973   35991       1   35970   35982  -35994   35976       1
   35970   35985  -36003   35988       1   35967   35964   35970   35982       1
   35967   35964   35970   35985       1   35967   35964   35973   35988       1
   35967   35964   35973   35991       1   35967   35976  -35994   35982       1
   35964   35967   35976   35994       1   35964   35970  -35982   35994       1
   35964   35970   35985   36003       1   35964   35973  -35988   36003       1
   35964   35973   35988   36009       1   35964   35973   35991   36012       1
   36153   36141   36150   36159       1   36153   36162  -36168   36159       1
   36150   36141   36153   36162       1   36150   36159  -36168   36162       1
   36144   36150   36141   36153       1   36144   36150   36159   36168       1
   36141   36150   36159   36168       1   36141   36153  -36162   36168       1
   36135   36117   36132   36141       1   36135   36144  -36150   36141       1
   36135   36144   36150   36159       1   36132   36117   36135   36144       1
   36132   36141  -36150   36144       1   36132   36141   36150   36159       1
   36132   36141   36153   36162       1   36120   36132   36117   36135       1
   36120   36132   36141   36150       1   36120   36132   36141   36153       1
   36117   36132   36141   36150       1   36117   36132   36141   36153       1
   36117   36135  -36144   36150       1   36111   36096   36117   36132       1
   36111   36096   36117   36135       1   36099   36081   36096   36111       1
   36099   36081   36096   36117       1   36099   36120  -36132   36117       1
   36099   36120   36132   36141       1   36096   36081   36099   36120       1
   36096   36117  -36132   36120       1   36096   36117   36132   36141       1
   36096   36117   36135   36144       1   36093   36078   36090   36102       1
   36093   36111   36096   36117       1   36090   36078   36093   36111       1
   36081   36072   36075   36084       1   36081   36072   36078   36090       1
   36081   36072   36078   36093       1   36081   36096  -36111   36093       1
   36081   36096   36117   36132       1   36081   36096   36117   36135       1
   36081   36099  -36120   36132       1   36078   36072   36075   36084       1
   36078   36072   36081   36096       1   36078   36072   36081   36099       1
   36078   36090  -36102   36084       1   36078   36093  -36111   36096       1
   36075   36072   36078   36090       1   36075   36072   36078   36093       1
   36075   36072   36081   36096       1   36075   36072   36081   36099       1
   36075   36084  -36102   36090       1   36072   36075   36084   36102       1
   36072   36078  -36090   36102       1   36072   36078   36093   36111       1
   36072   36081  -36096   36111       1   36072   36081   36096   36117       1
   36072   36081   36099   36120       1   36261   36249   36258   36267       1
   36261   36270  -36276   36267       1   36258   36249   36261   36270       1
   36258   36267  -36276   36270       1   36252   36258   36249   36261       1
   36252   36258   36267   36276       1   36249   36258   36267   36276       1
   36249   36261  -36270   36276       1   36243   36225   36240   36249       1
   36243   36252  -36258   36249       1   36243   36252   36258   36267       1
   36240   36225   36243   36252       1   36240   36249  -36258   36252       1
   36240   36249   36258   36267       1   36240   36249   36261   36270       1
   36228   36240   36225   36243       1   36228   36240   36249   36258       1
   36228   36240   36249   36261       1   36225   36240   36249   36258       1
   36225   36240   36249   36261       1   36225   36243  -36252   36258       1
   36219   36204   36225   36240       1   36219   36204   36225   36243       1
   36207   36189   36204   36219       1   36207   36189   36204   36225       1
   36207   36228  -36240   36225       1   36207   36228   36240   36249       1
   36204   36189   36207   36228       1   36204   36225  -36240   36228       1
   36204   36225   36240   36249       1   36204   36225   36243   36252       1
   36201   36186   36198   36210       1   36201   36219   36204   36225       1
   36198   36186   36201   36219       1   36189   36180   36183   36192       1
   36189   36180   36186   36198       1   36189   36180   36186   36201       1
   36189   36204  -36219   36201       1   36189   36204   36225   36240       1
   36189   36204   36225   36243       1   36189   36207  -36228   36240       1
   36186   36180   36183   36192       1   36186   36180   36189   36204       1
   36186   36180   36189   36207       1   36186   36198  -36210   36192       1
   36186   36201  -36219   36204       1   36183   36180   36186   36198       1
   36183   36180   36186   36201       1   36183   36180   36189   36204       1
   36183   36180   36189   36207       1   36183   36192  -36210   36198       1
   36180   36183   36192   36210       1   36180   36186  -36198   36210       1
   36180   36186   36201   36219       1   36180   36189  -36204   36219       1
   36180   36189   36204   36225       1   36180   36189   36207   36228       1
   36369   36357   36366   36375       1   36369   36378  -36384   36375       1
   36366   36357   36369   36378       1   36366   36375  -36384   36378       1
   36360   36366   36357   36369       1   36360   36366   36375   36384       1
   36357   36366   36375   36384       1   36357   36369  -36378   36384       1
   36351   36333   36348   36357       1   36351   36360  -36366   36357       1
   36351   36360   36366   36375       1   36348   36333   36351   36360       1
   36348   36357  -36366   36360       1   36348   36357   36366   36375       1
   36348   36357   36369   36378       1   36336   36348   36333   36351       1
   36336   36348   36357   36366       1   36336   36348   36357   36369       1
   36333   36348   36357   36366       1   36333   36348   36357   36369       1
   36333   36351  -36360   36366       1   36327   36312   36333   36348       1
   36327   36312   36333   36351       1   36315   36297   36312   36327       1
   36315   36297   36312   36333       1   36315   36336  -36348   36333       1
   36315   36336   36348   36357       1   36312   36297   36315   36336       1
   36312   36333  -36348   36336       1   36312   36333   36348   36357       1
   36312   36333   36351   36360       1   36309   36294   36306   36318       1
   36309   36327   36312   36333       1   36306   36294   36309   36327       1
   36297   36288   36291   36300       1   36297   36288   36294   36306       1
   36297   36288   36294   36309       1   36297   36312  -36327   36309       1
   36297   36312   36333   36348       1   36297   36312   36333   36351       1
   36297   36315  -36336   36348       1   36294   36288   36291   36300       1
   36294   36288   36297   36312       1   36294   36288   36297   36315       1
   36294   36306  -36318   36300       1   36294   36309  -36327   36312       1
   36291   36288   36294   36306       1   36291   36288   36294   36309       1
   36291   36288   36297   36312       1   36291   36288   36297   36315       1
   36291   36300  -36318   36306       1   36288   36291   36300   36318       1
   36288   36294  -36306   36318       1   36288   36294   36309   36327       1
   36288   36297  -36312   36327       1   36288   36297   36312   36333       1
   36288   36297   36315   36336       1   36477   36465   36474   36483       1
   36477   36486  -36492   36483       1   36474   36465   36477   36486       1
   36474   36483  -36492   36486       1   36468   36474   36465   36477       1
   36468   36474   36483   36492       1   36465   36474   36483   36492       1
   36465   36477  -36486   36492       1   36459   36441   36456   36465       1
   36459   36468  -36474   36465       1   36459   36468   36474   36483       1
   36456   36441   36459   36468       1   36456   36465  -36474   36468       1
   36456   36465   36474   36483       1   36456   36465   36477   36486       1
   36444   36456   36441   36459       1   36444   36456   36465   36474       1
   36444   36456   36465   36477       1   36441   36456   36465   36474       1
   36441   36456   36465   36477       1   36441   36459  -36468   36474       1
   36435   36420   36441   36456       1   36435   36420   36441   36459       1
   36423   36405   36420   36435       1   36423   36405   36420   36441       1
   36423   36444  -36456   36441       1   36423   36444   36456   36465       1
   36420   36405   36423   36444       1   36420   36441  -36456   36444       1
   36420   36441   36456   36465       1   36420   36441   36459   36468       1
   36417   36402   36414   36426       1   36417   36435   36420   36441       1
   36414   36402   36417   36435       1   36405   36396   36399   36408       1
   36405   36396   36402   36414       1   36405   36396   36402   36417       1
   36405   36420  -36435   36417       1   36405   36420   36441   36456       1
   36405   36420   36441   36459       1   36405   36423  -36444   36456       1
   36402   36396   36399   36408       1   36402   36396   36405   36420       1
   36402   36396   36405   36423       1   36402   36414  -36426   36408       1
   36402   36417  -36435   36420       1   36399   36396   36402   36414       1
   36399   36396   36402   36417       1   36399   36396   36405   36420       1
   36399   36396   36405   36423       1   36399   36408  -36426   36414       1
   36396   36399   36408   36426       1   36396   36402  -36414   36426       1
   36396   36402   36417   36435       1   36396   36405  -36420   36435       1
   36396   36405   36420   36441       1   36396   36405   36423   36444       1
   36585   36573   36582   36591       1   36585   36594  -36600   36591       1
   36582   36573   36585   36594       1   36582   36591  -36600   36594       1
   36576   36582   36573   36585       1   36576   36582   36591   36600       1
   36573   36582   36591   36600       1   36573   36585  -36594   36600       1
   36567   36549   36564   36573       1   36567   36576  -36582   36573       1
   36567   36576   36582   36591       1   36564   36549   36567   36576       1
   36564   36573  -36582   36576       1   36564   36573   36582   36591       1
   36564   36573   36585   36594       1   36552   36564   36549   36567       1
   36552   36564   36573   36582       1   36552   36564   36573   36585       1
   36549   36564   36573   36582       1   36549   36564   36573   36585       1
   36549   36567  -36576   36582       1   36543   36528   36549   36564       1
   36543   36528   36549   36567       1   36531   36513   36528   36543       1
   36531   36513   36528   36549       1   36531   36552  -36564   36549       1
   36531   36552   36564   36573       1   36528   36513   36531   36552       1
   36528   36549  -36564   36552       1   36528   36549   36564   36573       1
   36528   36549   36567   36576       1   36525   36510   36522   36534       1
   36525   36543   36528   36549       1   36522   36510   36525   36543       1
   36513   36504   36507   36516       1   36513   36504   36510   36522       1
   36513   36504   36510   36525       1   36513   36528  -36543   36525       1
   36513   36528   36549   36564       1   36513   36528   36549   36567       1
   36513   36531  -36552   36564       1   36510   36504   36507   36516       1
   36510   36504   36513   36528       1   36510   36504   36513   36531       1
   36510   36522  -36534   36516       1   36510   36525  -36543   36528       1
   36507   36504   36510   36522       1   36507   36504   36510   36525       1
   36507   36504   36513   36528       1   36507   36504   36513   36531       1
   36507   36516  -36534   36522       1   36504   36507   36516   36534       1
   36504   36510  -36522   36534       1   36504   36510   36525   36543       1
   36504   36513  -36528   36543       1   36504   36513   36528   36549       1
   36504   36513   36531   36552       1   36693   36681   36690   36699       1
   36693   36702  -36708   36699       1   36690   36681   36693   36702       1
   36690   36699  -36708   36702       1   36684   36690   36681   36693       1
   36684   36690   36699   36708       1   36681   36690   36699   36708       1
   36681   36693  -36702   36708       1   36675   36657   36672   36681       1
   36675   36684  -36690   36681       1   36675   36684   36690   36699       1
   36672   36657   36675   36684       1   36672   36681  -36690   36684       1
   36672   36681   36690   36699       1   36672   36681   36693   36702       1
   36660   36672   36657   36675       1   36660   36672   36681   36690       1
   36660   36672   36681   36693       1   36657   36672   36681   36690       1
   36657   36672   36681   36693       1   36657   36675  -36684   36690       1
   36651   36636   36657   36672       1   36651   36636   36657   36675       1
   36639   36621   36636   36651       1   36639   36621   36636   36657       1
   36639   36660  -36672   36657       1   36639   36660   36672   36681       1
   36636   36621   36639   36660       1   36636   36657  -36672   36660       1
   36636   36657   36672   36681       1   36636   36657   36675   36684       1
   36633   36618   36630   36642       1   36633   36651   36636   36657       1
   36630   36618   36633   36651       1   36621   36612   36615   36624       1
   36621   36612   36618   36630       1   36621   36612   36618   36633       1
   36621   36636  -36651   36633       1   36621   36636   36657   36672       1
   36621   36636   36657   36675       1   36621   36639  -36660   36672       1
   36618   36612   36615   36624       1   36618   36612   36621   36636       1
   36618   36612   36621   36639       1   36618   36630  -36642   36624       1
   36618   36633  -36651   36636       1   36615   36612   36618   36630       1
   36615   36612   36618   36633       1   36615   36612   36621   36636       1
   36615   36612   36621   36639       1   36615   36624  -36642   36630       1
   36612   36615   36624   36642       1   36612   36618  -36630   36642       1
   36612   36618   36633   36651       1   36612   36621  -36636   36651       1
   36612   36621   36636   36657       1   36612   36621   36639   36660       1
   36801   36789   36798   36807       1   36801   36810  -36816   36807       1
   36798   36789   36801   36810       1   36798   36807  -36816   36810       1
   36792   36798   36789   36801       1   36792   36798   36807   36816       1
   36789   36798   36807   36816       1   36789   36801  -36810   36816       1
   36783   36765   36780   36789       1   36783   36792  -36798   36789       1
   36783   36792   36798   36807       1   36780   36765   36783   36792       1
   36780   36789  -36798   36792       1   36780   36789   36798   36807       1
   36780   36789   36801   36810       1   36768   36780   36765   36783       1
   36768   36780   36789   36798       1   36768   36780   36789   36801       1
   36765   36780   36789   36798       1   36765   36780   36789   36801       1
   36765   36783  -36792   36798       1   36759   36744   36765   36780       1
   36759   36744   36765   36783       1   36747   36729   36744   36759       1
   36747   36729   36744   36765       1   36747   36768  -36780   36765       1
   36747   36768   36780   36789       1   36744   36729   36747   36768       1
   36744   36765  -36780   36768       1   36744   36765   36780   36789       1
   36744   36765   36783   36792       1   36741   36726   36738   36750       1
   36741   36759   36744   36765       1   36738   36726   36741   36759       1
   36729   36720   36723   36732       1   36729   36720   36726   36738       1
   36729   36720   36726   36741       1   36729   36744  -36759   36741       1
   36729   36744   36765   36780       1   36729   36744   36765   36783       1
   36729   36747  -36768   36780       1   36726   36720   36723   36732       1
   36726   36720   36729   36744       1   36726   36720   36729   36747       1
   36726   36738  -36750   36732       1   36726   36741  -36759   36744       1
   36723   36720   36726   36738       1   36723   36720   36726   36741       1
   36723   36720   36729   36744       1   36723   36720   36729   36747       1
   36723   36732  -36750   36738       1   36720   36723   36732   36750       1
   36720   36726  -36738   36750       1   36720   36726   36741   36759       1
   36720   36729  -36744   36759       1   36720   36729   36744   36765       1
   36720   36729   36747   36768       1   36909   36897   36906   36915       1
   36909   36918  -36924   36915       1   36906   36897   36909   36918       1
   36906   36915  -36924   36918       1   36900   36906   36897   36909       1
   36900   36906   36915   36924       1   36897   36906   36915   36924       1
   36897   36909  -36918   36924       1   36891   36873   36888   36897       1
   36891   36900  -36906   36897       1   36891   36900   36906   36915       1
   36888   36873   36891   36900       1   36888   36897  -36906   36900       1
   36888   36897   36906   36915       1   36888   36897   36909   36918       1
   36876   36888   36873   36891       1   36876   36888   36897   36906       1
   36876   36888   36897   36909       1   36873   36888   36897   36906       1
   36873   36888   36897   36909       1   36873   36891  -36900   36906       1
   36867   36852   36873   36888       1   36867   36852   36873   36891       1
   36855   36837   36852   36867       1   36855   36837   36852   36873       1
   36855   36876  -36888   36873       1   36855   36876   36888   36897       1
   36852   36837   36855   36876       1   36852   36873  -36888   36876       1
   36852   36873   36888   36897       1   36852   36873   36891   36900       1
   36849   36834   36846   36858       1   36849   36867   36852   36873       1
   36846   36834   36849   36867       1   36837   36828   36831   36840       1
   36837   36828   36834   36846       1   36837   36828   36834   36849       1
   36837   36852  -36867   36849       1   36837   36852   36873   36888       1
   36837   36852   36873   36891       1   36837   36855  -36876   36888       1
   36834   36828   36831   36840       1   36834   36828   36837   36852       1
   36834   36828   36837   36855       1   36834   36846  -36858   36840       1
   36834   36849  -36867   36852       1   36831   36828   36834   36846       1
   36831   36828   36834   36849       1   36831   36828   36837   36852       1
   36831   36828   36837   36855       1   36831   36840  -36858   36846       1
   36828   36831   36840   36858       1   36828   36834  -36846   36858       1
   36828   36834   36849   36867       1   36828   36837  -36852   36867       1
   36828   36837   36852   36873       1   36828   36837   36855   36876       1
   37017   37005   37014   37023       1   37017   37026  -37032   37023       1
   37014   37005   37017   37026       1   37014   37023  -37032   37026       1
   37008   37014   37005   37017       1   37008   37014   37023   37032       1
   37005   37014   37023   37032       1   37005   37017  -37026   37032       1
   36999   36981   36996   37005       1   36999   37008  -37014   37005       1
   36999   37008   37014   37023       1   36996   36981   36999   37008       1
   36996   37005  -37014   37008       1   36996   37005   37014   37023       1
   36996   37005   37017   37026       1   36984   36996   36981   36999       1
   36984   36996   37005   37014       1   36984   36996   37005   37017       1
   36981   36996   37005   37014       1   36981   36996   37005   37017       1
   36981   36999  -37008   37014       1   36975   36960   36981   36996       1
   36975   36960   36981   36999       1   36963   36945   36960   36975       1
   36963   36945   36960   36981       1   36963   36984  -36996   36981       1
   36963   36984   36996   37005       1   36960   36945   36963   36984       1
   36960   36981  -36996   36984       1   36960   36981   36996   37005       1
   36960   36981   36999   37008       1   36957   36942   36954   36966       1
   36957   36975   36960   36981       1   36954   36942   36957   36975       1
   36945   36936   36939   36948       1   36945   36936   36942   36954       1
   36945   36936   36942   36957       1   36945   36960  -36975   36957       1
   36945   36960   36981   36996       1   36945   36960   36981   36999       1
   36945   36963  -36984   36996       1   36942   36936   36939   36948       1
   36942   36936   36945   36960       1   36942   36936   36945   36963       1
   36942   36954  -36966   36948       1   36942   36957  -36975   36960       1
   36939   36936   36942   36954       1   36939   36936   36942   36957       1
   36939   36936   36945   36960       1   36939   36936   36945   36963       1
   36939   36948  -36966   36954       1   36936   36939   36948   36966       1
   36936   36942  -36954   36966       1   36936   36942   36957   36975       1
   36936   36945  -36960   36975       1   36936   36945   36960   36981       1
   36936   36945   36963   36984       1   37125   37113   37122   37131       1
   37125   37134  -37140   37131       1   37122   37113   37125   37134       1
   37122   37131  -37140   37134       1   37116   37122   37113   37125       1
   37116   37122   37131   37140       1   37113   37122   37131   37140       1
   37113   37125  -37134   37140       1   37107   37089   37104   37113       1
   37107   37116  -37122   37113       1   37107   37116   37122   37131       1
   37104   37089   37107   37116       1   37104   37113  -37122   37116       1
   37104   37113   37122   37131       1   37104   37113   37125   37134       1
   37092   37104   37089   37107       1   37092   37104   37113   37122       1
   37092   37104   37113   37125       1   37089   37104   37113   37122       1
   37089   37104   37113   37125       1   37089   37107  -37116   37122       1
   37083   37068   37089   37104       1   37083   37068   37089   37107       1
   37071   37053   37068   37083       1   37071   37053   37068   37089       1
   37071   37092  -37104   37089       1   37071   37092   37104   37113       1
   37068   37053   37071   37092       1   37068   37089  -37104   37092       1
   37068   37089   37104   37113       1   37068   37089   37107   37116       1
   37065   37050   37062   37074       1   37065   37083   37068   37089       1
   37062   37050   37065   37083       1   37053   37044   37047   37056       1
   37053   37044   37050   37062       1   37053   37044   37050   37065       1
   37053   37068  -37083   37065       1   37053   37068   37089   37104       1
   37053   37068   37089   37107       1   37053   37071  -37092   37104       1
   37050   37044   37047   37056       1   37050   37044   37053   37068       1
   37050   37044   37053   37071       1   37050   37062  -37074   37056       1
   37050   37065  -37083   37068       1   37047   37044   37050   37062       1
   37047   37044   37050   37065       1   37047   37044   37053   37068       1
   37047   37044   37053   37071       1   37047   37056  -37074   37062       1
   37044   37047   37056   37074       1   37044   37050  -37062   37074       1
   37044   37050   37065   37083       1   37044   37053  -37068   37083       1
   37044   37053   37068   37089       1   37044   37053   37071   37092       1
   37233   37221   37230   37239       1   37233   37242  -37248   37239       1
   37230   37221   37233   37242       1   37230   37239  -37248   37242       1
   37224   37230   37221   37233       1   37224   37230   37239   37248       1
   37221   37230   37239   37248       1   37221   37233  -37242   37248       1
   37215   37197   37212   37221       1   37215   37224  -37230   37221       1
   37215   37224   37230   37239       1   37212   37197   37215   37224       1
   37212   37221  -37230   37224       1   37212   37221   37230   37239       1
   37212   37221   37233   37242       1   37200   37212   37197   37215       1
   37200   37212   37221   37230       1   37200   37212   37221   37233       1
   37197   37212   37221   37230       1   37197   37212   37221   37233       1
   37197   37215  -37224   37230       1   37191   37176   37197   37212       1
   37191   37176   37197   37215       1   37179   37161   37176   37191       1
   37179   37161   37176   37197       1   37179   37200  -37212   37197       1
   37179   37200   37212   37221       1   37176   37161   37179   37200       1
   37176   37197  -37212   37200       1   37176   37197   37212   37221       1
   37176   37197   37215   37224       1   37173   37158   37170   37182       1
   37173   37191   37176   37197       1   37170   37158   37173   37191       1
   37161   37152   37155   37164       1   37161   37152   37158   37170       1
   37161   37152   37158   37173       1   37161   37176  -37191   37173       1
   37161   37176   37197   37212       1   37161   37176   37197   37215       1
   37161   37179  -37200   37212       1   37158   37152   37155   37164       1
   37158   37152   37161   37176       1   37158   37152   37161   37179       1
   37158   37170  -37182   37164       1   37158   37173  -37191   37176       1
   37155   37152   37158   37170       1   37155   37152   37158   37173       1
   37155   37152   37161   37176       1   37155   37152   37161   37179       1
   37155   37164  -37182   37170       1   37152   37155   37164   37182       1
   37152   37158  -37170   37182       1   37152   37158   37173   37191       1
   37152   37161  -37176   37191       1   37152   37161   37176   37197       1
   37152   37161   37179   37200       1   37341   37329   37338   37347       1
   37341   37350  -37356   37347       1   37338   37329   37341   37350       1
   37338   37347  -37356   37350       1   37332   37338   37329   37341       1
   37332   37338   37347   37356       1   37329   37338   37347   37356       1
   37329   37341  -37350   37356       1   37323   37305   37320   37329       1
   37323   37332  -37338   37329       1   37323   37332   37338   37347       1
   37320   37305   37323   37332       1   37320   37329  -37338   37332       1
   37320   37329   37338   37347       1   37320   37329   37341   37350       1
   37308   37320   37305   37323       1   37308   37320   37329   37338       1
   37308   37320   37329   37341       1   37305   37320   37329   37338       1
   37305   37320   37329   37341       1   37305   37323  -37332   37338       1
   37299   37284   37305   37320       1   37299   37284   37305   37323       1
   37287   37269   37284   37299       1   37287   37269   37284   37305       1
   37287   37308  -37320   37305       1   37287   37308   37320   37329       1
   37284   37269   37287   37308       1   37284   37305  -37320   37308       1
   37284   37305   37320   37329       1   37284   37305   37323   37332       1
   37281   37266   37278   37290       1   37281   37299   37284   37305       1
   37278   37266   37281   37299       1   37269   37260   37263   37272       1
   37269   37260   37266   37278       1   37269   37260   37266   37281       1
   37269   37284  -37299   37281       1   37269   37284   37305   37320       1
   37269   37284   37305   37323       1   37269   37287  -37308   37320       1
   37266   37260   37263   37272       1   37266   37260   37269   37284       1
   37266   37260   37269   37287       1   37266   37278  -37290   37272       1
   37266   37281  -37299   37284       1   37263   37260   37266   37278       1
   37263   37260   37266   37281       1   37263   37260   37269   37284       1
   37263   37260   37269   37287       1   37263   37272  -37290   37278       1
   37260   37263   37272   37290       1   37260   37266  -37278   37290       1
   37260   37266   37281   37299       1   37260   37269  -37284   37299       1
   37260   37269   37284   37305       1   37260   37269   37287   37308       1
   37449   37437   37446   37455       1   37449   37458  -37464   37455       1
   37446   37437   37449   37458       1   37446   37455  -37464   37458       1
   37440   37446   37437   37449       1   37440   37446   37455   37464       1
   37437   37446   37455   37464       1   37437   37449  -37458   37464       1
   37431   37413   37428   37437       1   37431   37440  -37446   37437       1
   37431   37440   37446   37455       1   37428   37413   37431   37440       1
   37428   37437  -37446   37440       1   37428   37437   37446   37455       1
   37428   37437   37449   37458       1   37416   37428   37413   37431       1
   37416   37428   37437   37446       1   37416   37428   37437   37449       1
   37413   37428   37437   37446       1   37413   37428   37437   37449       1
   37413   37431  -37440   37446       1   37407   37392   37413   37428       1
   37407   37392   37413   37431       1   37395   37377   37392   37407       1
   37395   37377   37392   37413       1   37395   37416  -37428   37413       1
   37395   37416   37428   37437       1   37392   37377   37395   37416       1
   37392   37413  -37428   37416       1   37392   37413   37428   37437       1
   37392   37413   37431   37440       1   37389   37374   37386   37398       1
   37389   37407   37392   37413       1   37386   37374   37389   37407       1
   37377   37368   37371   37380       1   37377   37368   37374   37386       1
   37377   37368   37374   37389       1   37377   37392  -37407   37389       1
   37377   37392   37413   37428       1   37377   37392   37413   37431       1
   37377   37395  -37416   37428       1   37374   37368   37371   37380       1
   37374   37368   37377   37392       1   37374   37368   37377   37395       1
   37374   37386  -37398   37380       1   37374   37389  -37407   37392       1
   37371   37368   37374   37386       1   37371   37368   37374   37389       1
   37371   37368   37377   37392       1   37371   37368   37377   37395       1
   37371   37380  -37398   37386       1   37368   37371   37380   37398       1
   37368   37374  -37386   37398       1   37368   37374   37389   37407       1
   37368   37377  -37392   37407       1   37368   37377   37392   37413       1
   37368   37377   37395   37416       1   37557   37545   37554   37563       1
   37557   37566  -37572   37563       1   37554   37545   37557   37566       1
   37554   37563  -37572   37566       1   37548   37554   37545   37557       1
   37548   37554   37563   37572       1   37545   37554   37563   37572       1
   37545   37557  -37566   37572       1   37539   37521   37536   37545       1
   37539   37548  -37554   37545       1   37539   37548   37554   37563       1
   37536   37521   37539   37548       1   37536   37545  -37554   37548       1
   37536   37545   37554   37563       1   37536   37545   37557   37566       1
   37524   37536   37521   37539       1   37524   37536   37545   37554       1
   37524   37536   37545   37557       1   37521   37536   37545   37554       1
   37521   37536   37545   37557       1   37521   37539  -37548   37554       1
   37515   37500   37521   37536       1   37515   37500   37521   37539       1
   37503   37485   37500   37515       1   37503   37485   37500   37521       1
   37503   37524  -37536   37521       1   37503   37524   37536   37545       1
   37500   37485   37503   37524       1   37500   37521  -37536   37524       1
   37500   37521   37536   37545       1   37500   37521   37539   37548       1
   37497   37482   37494   37506       1   37497   37515   37500   37521       1
   37494   37482   37497   37515       1   37485   37476   37479   37488       1
   37485   37476   37482   37494       1   37485   37476   37482   37497       1
   37485   37500  -37515   37497       1   37485   37500   37521   37536       1
   37485   37500   37521   37539       1   37485   37503  -37524   37536       1
   37482   37476   37479   37488       1   37482   37476   37485   37500       1
   37482   37476   37485   37503       1   37482   37494  -37506   37488       1
   37482   37497  -37515   37500       1   37479   37476   37482   37494       1
   37479   37476   37482   37497       1   37479   37476   37485   37500       1
   37479   37476   37485   37503       1   37479   37488  -37506   37494       1
   37476   37479   37488   37506       1   37476   37482  -37494   37506       1
   37476   37482   37497   37515       1   37476   37485  -37500   37515       1
   37476   37485   37500   37521       1   37476   37485   37503   37524       1
   37665   37653   37662   37671       1   37665   37674  -37680   37671       1
   37662   37653   37665   37674       1   37662   37671  -37680   37674       1
   37656   37662   37653   37665       1   37656   37662   37671   37680       1
   37653   37662   37671   37680       1   37653   37665  -37674   37680       1
   37647   37629   37644   37653       1   37647   37656  -37662   37653       1
   37647   37656   37662   37671       1   37644   37629   37647   37656       1
   37644   37653  -37662   37656       1   37644   37653   37662   37671       1
   37644   37653   37665   37674       1   37632   37644   37629   37647       1
   37632   37644   37653   37662       1   37632   37644   37653   37665       1
   37629   37644   37653   37662       1   37629   37644   37653   37665       1
   37629   37647  -37656   37662       1   37623   37608   37629   37644       1
   37623   37608   37629   37647       1   37611   37593   37608   37623       1
   37611   37593   37608   37629       1   37611   37632  -37644   37629       1
   37611   37632   37644   37653       1   37608   37593   37611   37632       1
   37608   37629  -37644   37632       1   37608   37629   37644   37653       1
   37608   37629   37647   37656       1   37605   37590   37602   37614       1
   37605   37623   37608   37629       1   37602   37590   37605   37623       1
   37593   37584   37587   37596       1   37593   37584   37590   37602       1
   37593   37584   37590   37605       1   37593   37608  -37623   37605       1
   37593   37608   37629   37644       1   37593   37608   37629   37647       1
   37593   37611  -37632   37644       1   37590   37584   37587   37596       1
   37590   37584   37593   37608       1   37590   37584   37593   37611       1
   37590   37602  -37614   37596       1   37590   37605  -37623   37608       1
   37587   37584   37590   37602       1   37587   37584   37590   37605       1
   37587   37584   37593   37608       1   37587   37584   37593   37611       1
   37587   37596  -37614   37602       1   37584   37587   37596   37614       1
   37584   37590  -37602   37614       1   37584   37590   37605   37623       1
   37584   37593  -37608   37623       1   37584   37593   37608   37629       1
   37584   37593   37611   37632       1   37773   37761   37770   37779       1
   37773   37782  -37788   37779       1   37770   37761   37773   37782       1
   37770   37779  -37788   37782       1   37764   37770   37761   37773       1
   37764   37770   37779   37788       1   37761   37770   37779   37788       1
   37761   37773  -37782   37788       1   37755   37737   37752   37761       1
   37755   37764  -37770   37761       1   37755   37764   37770   37779       1
   37752   37737   37755   37764       1   37752   37761  -37770   37764       1
   37752   37761   37770   37779       1   37752   37761   37773   37782       1
   37740   37752   37737   37755       1   37740   37752   37761   37770       1
   37740   37752   37761   37773       1   37737   37752   37761   37770       1
   37737   37752   37761   37773       1   37737   37755  -37764   37770       1
   37731   37716   37737   37752       1   37731   37716   37737   37755       1
   37719   37701   37716   37731       1   37719   37701   37716   37737       1
   37719   37740  -37752   37737       1   37719   37740   37752   37761       1
   37716   37701   37719   37740       1   37716   37737  -37752   37740       1
   37716   37737   37752   37761       1   37716   37737   37755   37764       1
   37713   37698   37710   37722       1   37713   37731   37716   37737       1
   37710   37698   37713   37731       1   37701   37692   37695   37704       1
   37701   37692   37698   37710       1   37701   37692   37698   37713       1
   37701   37716  -37731   37713       1   37701   37716   37737   37752       1
   37701   37716   37737   37755       1   37701   37719  -37740   37752       1
   37698   37692   37695   37704       1   37698   37692   37701   37716       1
   37698   37692   37701   37719       1   37698   37710  -37722   37704       1
   37698   37713  -37731   37716       1   37695   37692   37698   37710       1
   37695   37692   37698   37713       1   37695   37692   37701   37716       1
   37695   37692   37701   37719       1   37695   37704  -37722   37710       1
   37692   37695   37704   37722       1   37692   37698  -37710   37722       1
   37692   37698   37713   37731       1   37692   37701  -37716   37731       1
   37692   37701   37716   37737       1   37692   37701   37719   37740       1
   37881   37869   37878   37887       1   37881   37890  -37896   37887       1
   37878   37869   37881   37890       1   37878   37887  -37896   37890       1
   37872   37878   37869   37881       1   37872   37878   37887   37896       1
   37869   37878   37887   37896       1   37869   37881  -37890   37896       1
   37863   37845   37860   37869       1   37863   37872  -37878   37869       1
   37863   37872   37878   37887       1   37860   37845   37863   37872       1
   37860   37869  -37878   37872       1   37860   37869   37878   37887       1
   37860   37869   37881   37890       1   37848   37860   37845   37863       1
   37848   37860   37869   37878       1   37848   37860   37869   37881       1
   37845   37860   37869   37878       1   37845   37860   37869   37881       1
   37845   37863  -37872   37878       1   37839   37824   37845   37860       1
   37839   37824   37845   37863       1   37827   37809   37824   37839       1
   37827   37809   37824   37845       1   37827   37848  -37860   37845       1
   37827   37848   37860   37869       1   37824   37809   37827   37848       1
   37824   37845  -37860   37848       1   37824   37845   37860   37869       1
   37824   37845   37863   37872       1   37821   37806   37818   37830       1
   37821   37839   37824   37845       1   37818   37806   37821   37839       1
   37809   37800   37803   37812       1   37809   37800   37806   37818       1
   37809   37800   37806   37821       1   37809   37824  -37839   37821       1
   37809   37824   37845   37860       1   37809   37824   37845   37863       1
   37809   37827  -37848   37860       1   37806   37800   37803   37812       1
   37806   37800   37809   37824       1   37806   37800   37809   37827       1
   37806   37818  -37830   37812       1   37806   37821  -37839   37824       1
   37803   37800   37806   37818       1   37803   37800   37806   37821       1
   37803   37800   37809   37824       1   37803   37800   37809   37827       1
   37803   37812  -37830   37818       1   37800   37803   37812   37830       1
   37800   37806  -37818   37830       1   37800   37806   37821   37839       1
   37800   37809  -37824   37839       1   37800   37809   37824   37845       1
   37800   37809   37827   37848       1   37989   37977   37986   37995       1
   37989   37998  -38004   37995       1   37986   37977   37989   37998       1
   37986   37995  -38004   37998       1   37980   37986   37977   37989       1
   37980   37986   37995   38004       1   37977   37986   37995   38004       1
   37977   37989  -37998   38004       1   37971   37953   37968   37977       1
   37971   37980  -37986   37977       1   37971   37980   37986   37995       1
   37968   37953   37971   37980       1   37968   37977  -37986   37980       1
   37968   37977   37986   37995       1   37968   37977   37989   37998       1
   37956   37968   37953   37971       1   37956   37968   37977   37986       1
   37956   37968   37977   37989       1   37953   37968   37977   37986       1
   37953   37968   37977   37989       1   37953   37971  -37980   37986       1
   37947   37932   37953   37968       1   37947   37932   37953   37971       1
   37935   37917   37932   37947       1   37935   37917   37932   37953       1
   37935   37956  -37968   37953       1   37935   37956   37968   37977       1
   37932   37917   37935   37956       1   37932   37953  -37968   37956       1
   37932   37953   37968   37977       1   37932   37953   37971   37980       1
   37929   37914   37926   37938       1   37929   37947   37932   37953       1
   37926   37914   37929   37947       1   37917   37908   37911   37920       1
   37917   37908   37914   37926       1   37917   37908   37914   37929       1
   37917   37932  -37947   37929       1   37917   37932   37953   37968       1
   37917   37932   37953   37971       1   37917   37935  -37956   37968       1
   37914   37908   37911   37920       1   37914   37908   37917   37932       1
   37914   37908   37917   37935       1   37914   37926  -37938   37920       1
   37914   37929  -37947   37932       1   37911   37908   37914   37926       1
   37911   37908   37914   37929       1   37911   37908   37917   37932       1
   37911   37908   37917   37935       1   37911   37920  -37938   37926       1
   37908   37911   37920   37938       1   37908   37914  -37926   37938       1
   37908   37914   37929   37947       1   37908   37917  -37932   37947       1
   37908   37917   37932   37953       1   37908   37917   37935   37956       1
   38097   38085   38094   38103       1   38097   38106  -38112   38103       1
   38094   38085   38097   38106       1   38094   38103  -38112   38106       1
   38088   38094   38085   38097       1   38088   38094   38103   38112       1
   38085   38094   38103   38112       1   38085   38097  -38106   38112       1
   38079   38061   38076   38085       1   38079   38088  -38094   38085       1
   38079   38088   38094   38103       1   38076   38061   38079   38088       1
   38076   38085  -38094   38088       1   38076   38085   38094   38103       1
   38076   38085   38097   38106       1   38064   38076   38061   38079       1
   38064   38076   38085   38094       1   38064   38076   38085   38097       1
   38061   38076   38085   38094       1   38061   38076   38085   38097       1
   38061   38079  -38088   38094       1   38055   38040   38061   38076       1
   38055   38040   38061   38079       1   38043   38025   38040   38055       1
   38043   38025   38040   38061       1   38043   38064  -38076   38061       1
   38043   38064   38076   38085       1   38040   38025   38043   38064       1
   38040   38061  -38076   38064       1   38040   38061   38076   38085       1
   38040   38061   38079   38088       1   38037   38022   38034   38046       1
   38037   38055   38040   38061       1   38034   38022   38037   38055       1
   38025   38016   38019   38028       1   38025   38016   38022   38034       1
   38025   38016   38022   38037       1   38025   38040  -38055   38037       1
   38025   38040   38061   38076       1   38025   38040   38061   38079       1
   38025   38043  -38064   38076       1   38022   38016   38019   38028       1
   38022   38016   38025   38040       1   38022   38016   38025   38043       1
   38022   38034  -38046   38028       1   38022   38037  -38055   38040       1
   38019   38016   38022   38034       1   38019   38016   38022   38037       1
   38019   38016   38025   38040       1   38019   38016   38025   38043       1
   38019   38028  -38046   38034       1   38016   38019   38028   38046       1
   38016   38022  -38034   38046       1   38016   38022   38037   38055       1
   38016   38025  -38040   38055       1   38016   38025   38040   38061       1
   38016   38025   38043   38064       1   38205   38193   38202   38211       1
   38205   38214  -38220   38211       1   38202   38193   38205   38214       1
   38202   38211  -38220   38214       1   38196   38202   38193   38205       1
   38196   38202   38211   38220       1   38193   38202   38211   38220       1
   38193   38205  -38214   38220       1   38187   38169   38184   38193       1
   38187   38196  -38202   38193       1   38187   38196   38202   38211       1
   38184   38169   38187   38196       1   38184   38193  -38202   38196       1
   38184   38193   38202   38211       1   38184   38193   38205   38214       1
   38172   38184   38169   38187       1   38172   38184   38193   38202       1
   38172   38184   38193   38205       1   38169   38184   38193   38202       1
   38169   38184   38193   38205       1   38169   38187  -38196   38202       1
   38163   38148   38169   38184       1   38163   38148   38169   38187       1
   38151   38133   38148   38163       1   38151   38133   38148   38169       1
   38151   38172  -38184   38169       1   38151   38172   38184   38193       1
   38148   38133   38151   38172       1   38148   38169  -38184   38172       1
   38148   38169   38184   38193       1   38148   38169   38187   38196       1
   38145   38130   38142   38154       1   38145   38163   38148   38169       1
   38142   38130   38145   38163       1   38133   38124   38127   38136       1
   38133   38124   38130   38142       1   38133   38124   38130   38145       1
   38133   38148  -38163   38145       1   38133   38148   38169   38184       1
   38133   38148   38169   38187       1   38133   38151  -38172   38184       1
   38130   38124   38127   38136       1   38130   38124   38133   38148       1
   38130   38124   38133   38151       1   38130   38142  -38154   38136       1
   38130   38145  -38163   38148       1   38127   38124   38130   38142       1
   38127   38124   38130   38145       1   38127   38124   38133   38148       1
   38127   38124   38133   38151       1   38127   38136  -38154   38142       1
   38124   38127   38136   38154       1   38124   38130  -38142   38154       1
   38124   38130   38145   38163       1   38124   38133  -38148   38163       1
   38124   38133   38148   38169       1   38124   38133   38151   38172       1
   38313   38301   38310   38319       1   38313   38322  -38328   38319       1
   38310   38301   38313   38322       1   38310   38319  -38328   38322       1
   38304   38310   38301   38313       1   38304   38310   38319   38328       1
   38301   38310   38319   38328       1   38301   38313  -38322   38328       1
   38295   38277   38292   38301       1   38295   38304  -38310   38301       1
   38295   38304   38310   38319       1   38292   38277   38295   38304       1
   38292   38301  -38310   38304       1   38292   38301   38310   38319       1
   38292   38301   38313   38322       1   38280   38292   38277   38295       1
   38280   38292   38301   38310       1   38280   38292   38301   38313       1
   38277   38292   38301   38310       1   38277   38292   38301   38313       1
   38277   38295  -38304   38310       1   38271   38256   38277   38292       1
   38271   38256   38277   38295       1   38259   38241   38256   38271       1
   38259   38241   38256   38277       1   38259   38280  -38292   38277       1
   38259   38280   38292   38301       1   38256   38241   38259   38280       1
   38256   38277  -38292   38280       1   38256   38277   38292   38301       1
   38256   38277   38295   38304       1   38253   38238   38250   38262       1
   38253   38271   38256   38277       1   38250   38238   38253   38271       1
   38241   38232   38235   38244       1   38241   38232   38238   38250       1
   38241   38232   38238   38253       1   38241   38256  -38271   38253       1
   38241   38256   38277   38292       1   38241   38256   38277   38295       1
   38241   38259  -38280   38292       1   38238   38232   38235   38244       1
   38238   38232   38241   38256       1   38238   38232   38241   38259       1
   38238   38250  -38262   38244       1   38238   38253  -38271   38256       1
   38235   38232   38238   38250       1   38235   38232   38238   38253       1
   38235   38232   38241   38256       1   38235   38232   38241   38259       1
   38235   38244  -38262   38250       1   38232   38235   38244   38262       1
   38232   38238  -38250   38262       1   38232   38238   38253   38271       1
   38232   38241  -38256   38271       1   38232   38241   38256   38277       1
   38232   38241   38259   38280       1   38421   38409   38418   38427       1
   38421   38430  -38436   38427       1   38418   38409   38421   38430       1
   38418   38427  -38436   38430       1   38412   38418   38409   38421       1
   38412   38418   38427   38436       1   38409   38418   38427   38436       1
   38409   38421  -38430   38436       1   38403   38385   38400   38409       1
   38403   38412  -38418   38409       1   38403   38412   38418   38427       1
   38400   38385   38403   38412       1   38400   38409  -38418   38412       1
   38400   38409   38418   38427       1   38400   38409   38421   38430       1
   38388   38400   38385   38403       1   38388   38400   38409   38418       1
   38388   38400   38409   38421       1   38385   38400   38409   38418       1
   38385   38400   38409   38421       1   38385   38403  -38412   38418       1
   38379   38364   38385   38400       1   38379   38364   38385   38403       1
   38367   38349   38364   38379       1   38367   38349   38364   38385       1
   38367   38388  -38400   38385       1   38367   38388   38400   38409       1
   38364   38349   38367   38388       1   38364   38385  -38400   38388       1
   38364   38385   38400   38409       1   38364   38385   38403   38412       1
   38361   38346   38358   38370       1   38361   38379   38364   38385       1
   38358   38346   38361   38379       1   38349   38340   38343   38352       1
   38349   38340   38346   38358       1   38349   38340   38346   38361       1
   38349   38364  -38379   38361       1   38349   38364   38385   38400       1
   38349   38364   38385   38403       1   38349   38367  -38388   38400       1
   38346   38340   38343   38352       1   38346   38340   38349   38364       1
   38346   38340   38349   38367       1   38346   38358  -38370   38352       1
   38346   38361  -38379   38364       1   38343   38340   38346   38358       1
   38343   38340   38346   38361       1   38343   38340   38349   38364       1
   38343   38340   38349   38367       1   38343   38352  -38370   38358       1
   38340   38343   38352   38370       1   38340   38346  -38358   38370       1
   38340   38346   38361   38379       1   38340   38349  -38364   38379       1
   38340   38349   38364   38385       1   38340   38349   38367   38388       1
   38529   38517   38526   38535       1   38529   38538  -38544   38535       1
   38526   38517   38529   38538       1   38526   38535  -38544   38538       1
   38520   38526   38517   38529       1   38520   38526   38535   38544       1
   38517   38526   38535   38544       1   38517   38529  -38538   38544       1
   38511   38493   38508   38517       1   38511   38520  -38526   38517       1
   38511   38520   38526   38535       1   38508   38493   38511   38520       1
   38508   38517  -38526   38520       1   38508   38517   38526   38535       1
   38508   38517   38529   38538       1   38496   38508   38493   38511       1
   38496   38508   38517   38526       1   38496   38508   38517   38529       1
   38493   38508   38517   38526       1   38493   38508   38517   38529       1
   38493   38511  -38520   38526       1   38487   38472   38493   38508       1
   38487   38472   38493   38511       1   38475   38457   38472   38487       1
   38475   38457   38472   38493       1   38475   38496  -38508   38493       1
   38475   38496   38508   38517       1   38472   38457   38475   38496       1
   38472   38493  -38508   38496       1   38472   38493   38508   38517       1
   38472   38493   38511   38520       1   38469   38454   38466   38478       1
   38469   38487   38472   38493       1   38466   38454   38469   38487       1
   38457   38448   38451   38460       1   38457   38448   38454   38466       1
   38457   38448   38454   38469       1   38457   38472  -38487   38469       1
   38457   38472   38493   38508       1   38457   38472   38493   38511       1
   38457   38475  -38496   38508       1   38454   38448   38451   38460       1
   38454   38448   38457   38472       1   38454   38448   38457   38475       1
   38454   38466  -38478   38460       1   38454   38469  -38487   38472       1
   38451   38448   38454   38466       1   38451   38448   38454   38469       1
   38451   38448   38457   38472       1   38451   38448   38457   38475       1
   38451   38460  -38478   38466       1   38448   38451   38460   38478       1
   38448   38454  -38466   38478       1   38448   38454   38469   38487       1
   38448   38457  -38472   38487       1   38448   38457   38472   38493       1
   38448   38457   38475   38496       1   38637   38625   38634   38643       1
   38637   38646  -38652   38643       1   38634   38625   38637   38646       1
   38634   38643  -38652   38646       1   38628   38634   38625   38637       1
   38628   38634   38643   38652       1   38625   38634   38643   38652       1
   38625   38637  -38646   38652       1   38619   38601   38616   38625       1
   38619   38628  -38634   38625       1   38619   38628   38634   38643       1
   38616   38601   38619   38628       1   38616   38625  -38634   38628       1
   38616   38625   38634   38643       1   38616   38625   38637   38646       1
   38604   38616   38601   38619       1   38604   38616   38625   38634       1
   38604   38616   38625   38637       1   38601   38616   38625   38634       1
   38601   38616   38625   38637       1   38601   38619  -38628   38634       1
   38595   38580   38601   38616       1   38595   38580   38601   38619       1
   38583   38565   38580   38595       1   38583   38565   38580   38601       1
   38583   38604  -38616   38601       1   38583   38604   38616   38625       1
   38580   38565   38583   38604       1   38580   38601  -38616   38604       1
   38580   38601   38616   38625       1   38580   38601   38619   38628       1
   38577   38562   38574   38586       1   38577   38595   38580   38601       1
   38574   38562   38577   38595       1   38565   38556   38559   38568       1
   38565   38556   38562   38574       1   38565   38556   38562   38577       1
   38565   38580  -38595   38577       1   38565   38580   38601   38616       1
   38565   38580   38601   38619       1   38565   38583  -38604   38616       1
   38562   38556   38559   38568       1   38562   38556   38565   38580       1
   38562   38556   38565   38583       1   38562   38574  -38586   38568       1
   38562   38577  -38595   38580       1   38559   38556   38562   38574       1
   38559   38556   38562   38577       1   38559   38556   38565   38580       1
   38559   38556   38565   38583       1   38559   38568  -38586   38574       1
   38556   38559   38568   38586       1   38556   38562  -38574   38586       1
   38556   38562   38577   38595       1   38556   38565  -38580   38595       1
   38556   38565   38580   38601       1   38556   38565   38583   38604       1
   38745   38733   38742   38751       1   38745   38754  -38760   38751       1
   38742   38733   38745   38754       1   38742   38751  -38760   38754       1
   38736   38742   38733   38745       1   38736   38742   38751   38760       1
   38733   38742   38751   38760       1   38733   38745  -38754   38760       1
   38727   38709   38724   38733       1   38727   38736  -38742   38733       1
   38727   38736   38742   38751       1   38724   38709   38727   38736       1
   38724   38733  -38742   38736       1   38724   38733   38742   38751       1
   38724   38733   38745   38754       1   38712   38724   38709   38727       1
   38712   38724   38733   38742       1   38712   38724   38733   38745       1
   38709   38724   38733   38742       1   38709   38724   38733   38745       1
   38709   38727  -38736   38742       1   38703   38688   38709   38724       1
   38703   38688   38709   38727       1   38691   38673   38688   38703       1
   38691   38673   38688   38709       1   38691   38712  -38724   38709       1
   38691   38712   38724   38733       1   38688   38673   38691   38712       1
   38688   38709  -38724   38712       1   38688   38709   38724   38733       1
   38688   38709   38727   38736       1   38685   38670   38682   38694       1
   38685   38703   38688   38709       1   38682   38670   38685   38703       1
   38673   38664   38667   38676       1   38673   38664   38670   38682       1
   38673   38664   38670   38685       1   38673   38688  -38703   38685       1
   38673   38688   38709   38724       1   38673   38688   38709   38727       1
   38673   38691  -38712   38724       1   38670   38664   38667   38676       1
   38670   38664   38673   38688       1   38670   38664   38673   38691       1
   38670   38682  -38694   38676       1   38670   38685  -38703   38688       1
   38667   38664   38670   38682       1   38667   38664   38670   38685       1
   38667   38664   38673   38688       1   38667   38664   38673   38691       1
   38667   38676  -38694   38682       1   38664   38667   38676   38694       1
   38664   38670  -38682   38694       1   38664   38670   38685   38703       1
   38664   38673  -38688   38703       1   38664   38673   38688   38709       1
   38664   38673   38691   38712       1   38853   38841   38850   38859       1
   38853   38862  -38868   38859       1   38850   38841   38853   38862       1
   38850   38859  -38868   38862       1   38844   38850   38841   38853       1
   38844   38850   38859   38868       1   38841   38850   38859   38868       1
   38841   38853  -38862   38868       1   38835   38817   38832   38841       1
   38835   38844  -38850   38841       1   38835   38844   38850   38859       1
   38832   38817   38835   38844       1   38832   38841  -38850   38844       1
   38832   38841   38850   38859       1   38832   38841   38853   38862       1
   38820   38832   38817   38835       1   38820   38832   38841   38850       1
   38820   38832   38841   38853       1   38817   38832   38841   38850       1
   38817   38832   38841   38853       1   38817   38835  -38844   38850       1
   38811   38796   38817   38832       1   38811   38796   38817   38835       1
   38799   38781   38796   38811       1   38799   38781   38796   38817       1
   38799   38820  -38832   38817       1   38799   38820   38832   38841       1
   38796   38781   38799   38820       1   38796   38817  -38832   38820       1
   38796   38817   38832   38841       1   38796   38817   38835   38844       1
   38793   38778   38790   38802       1   38793   38811   38796   38817       1
   38790   38778   38793   38811       1   38781   38772   38775   38784       1
   38781   38772   38778   38790       1   38781   38772   38778   38793       1
   38781   38796  -38811   38793       1   38781   38796   38817   38832       1
   38781   38796   38817   38835       1   38781   38799  -38820   38832       1
   38778   38772   38775   38784       1   38778   38772   38781   38796       1
   38778   38772   38781   38799       1   38778   38790  -38802   38784       1
   38778   38793  -38811   38796       1   38775   38772   38778   38790       1
   38775   38772   38778   38793       1   38775   38772   38781   38796       1
   38775   38772   38781   38799       1   38775   38784  -38802   38790       1
   38772   38775   38784   38802       1   38772   38778  -38790   38802       1
   38772   38778   38793   38811       1   38772   38781  -38796   38811       1
   38772   38781   38796   38817       1   38772   38781   38799   38820       1
   38961   38949   38958   38967       1   38961   38970  -38976   38967       1
   38958   38949   38961   38970       1   38958   38967  -38976   38970       1
   38952   38958   38949   38961       1   38952   38958   38967   38976       1
   38949   38958   38967   38976       1   38949   38961  -38970   38976       1
   38943   38925   38940   38949       1   38943   38952  -38958   38949       1
   38943   38952   38958   38967       1   38940   38925   38943   38952       1
   38940   38949  -38958   38952       1   38940   38949   38958   38967       1
   38940   38949   38961   38970       1   38928   38940   38925   38943       1
   38928   38940   38949   38958       1   38928   38940   38949   38961       1
   38925   38940   38949   38958       1   38925   38940   38949   38961       1
   38925   38943  -38952   38958       1   38919   38904   38925   38940       1
   38919   38904   38925   38943       1   38907   38889   38904   38919       1
   38907   38889   38904   38925       1   38907   38928  -38940   38925       1
   38907   38928   38940   38949       1   38904   38889   38907   38928       1
   38904   38925  -38940   38928       1   38904   38925   38940   38949       1
   38904   38925   38943   38952       1   38901   38886   38898   38910       1
   38901   38919   38904   38925       1   38898   38886   38901   38919       1
   38889   38880   38883   38892       1   38889   38880   38886   38898       1
   38889   38880   38886   38901       1   38889   38904  -38919   38901       1
   38889   38904   38925   38940       1   38889   38904   38925   38943       1
   38889   38907  -38928   38940       1   38886   38880   38883   38892       1
   38886   38880   38889   38904       1   38886   38880   38889   38907       1
   38886   38898  -38910   38892       1   38886   38901  -38919   38904       1
   38883   38880   38886   38898       1   38883   38880   38886   38901       1
   38883   38880   38889   38904       1   38883   38880   38889   38907       1
   38883   38892  -38910   38898       1   38880   38883   38892   38910       1
   38880   38886  -38898   38910       1   38880   38886   38901   38919       1
   38880   38889  -38904   38919       1   38880   38889   38904   38925       1
   38880   38889   38907   38928       1   39069   39057   39066   39075       1
   39069   39078  -39084   39075       1   39066   39057   39069   39078       1
   39066   39075  -39084   39078       1   39060   39066   39057   39069       1
   39060   39066   39075   39084       1   39057   39066   39075   39084       1
   39057   39069  -39078   39084       1   39051   39033   39048   39057       1
   39051   39060  -39066   39057       1   39051   39060   39066   39075       1
   39048   39033   39051   39060       1   39048   39057  -39066   39060       1
   39048   39057   39066   39075       1   39048   39057   39069   39078       1
   39036   39048   39033   39051       1   39036   39048   39057   39066       1
   39036   39048   39057   39069       1   39033   39048   39057   39066       1
   39033   39048   39057   39069       1   39033   39051  -39060   39066       1
   39027   39012   39033   39048       1   39027   39012   39033   39051       1
   39015   38997   39012   39027       1   39015   38997   39012   39033       1
   39015   39036  -39048   39033       1   39015   39036   39048   39057       1
   39012   38997   39015   39036       1   39012   39033  -39048   39036       1
   39012   39033   39048   39057       1   39012   39033   39051   39060       1
   39009   38994   39006   39018       1   39009   39027   39012   39033       1
   39006   38994   39009   39027       1   38997   38988   38991   39000       1
   38997   38988   38994   39006       1   38997   38988   38994   39009       1
   38997   39012  -39027   39009       1   38997   39012   39033   39048       1
   38997   39012   39033   39051       1   38997   39015  -39036   39048       1
   38994   38988   38991   39000       1   38994   38988   38997   39012       1
   38994   38988   38997   39015       1   38994   39006  -39018   39000       1
   38994   39009  -39027   39012       1   38991   38988   38994   39006       1
   38991   38988   38994   39009       1   38991   38988   38997   39012       1
   38991   38988   38997   39015       1   38991   39000  -39018   39006       1
   38988   38991   39000   39018       1   38988   38994  -39006   39018       1
   38988   38994   39009   39027       1   38988   38997  -39012   39027       1
   38988   38997   39012   39033       1   38988   38997   39015   39036       1
   39177   39165   39174   39183       1   39177   39186  -39192   39183       1
   39174   39165   39177   39186       1   39174   39183  -39192   39186       1
   39168   39174   39165   39177       1   39168   39174   39183   39192       1
   39165   39174   39183   39192       1   39165   39177  -39186   39192       1
   39159   39141   39156   39165       1   39159   39168  -39174   39165       1
   39159   39168   39174   39183       1   39156   39141   39159   39168       1
   39156   39165  -39174   39168       1   39156   39165   39174   39183       1
   39156   39165   39177   39186       1   39144   39156   39141   39159       1
   39144   39156   39165   39174       1   39144   39156   39165   39177       1
   39141   39156   39165   39174       1   39141   39156   39165   39177       1
   39141   39159  -39168   39174       1   39135   39120   39141   39156       1
   39135   39120   39141   39159       1   39123   39105   39120   39135       1
   39123   39105   39120   39141       1   39123   39144  -39156   39141       1
   39123   39144   39156   39165       1   39120   39105   39123   39144       1
   39120   39141  -39156   39144       1   39120   39141   39156   39165       1
   39120   39141   39159   39168       1   39117   39102   39114   39126       1
   39117   39135   39120   39141       1   39114   39102   39117   39135       1
   39105   39096   39099   39108       1   39105   39096   39102   39114       1
   39105   39096   39102   39117       1   39105   39120  -39135   39117       1
   39105   39120   39141   39156       1   39105   39120   39141   39159       1
   39105   39123  -39144   39156       1   39102   39096   39099   39108       1
   39102   39096   39105   39120       1   39102   39096   39105   39123       1
   39102   39114  -39126   39108       1   39102   39117  -39135   39120       1
   39099   39096   39102   39114       1   39099   39096   39102   39117       1
   39099   39096   39105   39120       1   39099   39096   39105   39123       1
   39099   39108  -39126   39114       1   39096   39099   39108   39126       1
   39096   39102  -39114   39126       1   39096   39102   39117   39135       1
   39096   39105  -39120   39135       1   39096   39105   39120   39141       1
   39096   39105   39123   39144       1   39285   39273   39282   39291       1
   39285   39294  -39300   39291       1   39282   39273   39285   39294       1
   39282   39291  -39300   39294       1   39276   39282   39273   39285       1
   39276   39282   39291   39300       1   39273   39282   39291   39300       1
   39273   39285  -39294   39300       1   39267   39249   39264   39273       1
   39267   39276  -39282   39273       1   39267   39276   39282   39291       1
   39264   39249   39267   39276       1   39264   39273  -39282   39276       1
   39264   39273   39282   39291       1   39264   39273   39285   39294       1
   39252   39264   39249   39267       1   39252   39264   39273   39282       1
   39252   39264   39273   39285       1   39249   39264   39273   39282       1
   39249   39264   39273   39285       1   39249   39267  -39276   39282       1
   39243   39228   39249   39264       1   39243   39228   39249   39267       1
   39231   39213   39228   39243       1   39231   39213   39228   39249       1
   39231   39252  -39264   39249       1   39231   39252   39264   39273       1
   39228   39213   39231   39252       1   39228   39249  -39264   39252       1
   39228   39249   39264   39273       1   39228   39249   39267   39276       1
   39225   39210   39222   39234       1   39225   39243   39228   39249       1
   39222   39210   39225   39243       1   39213   39204   39207   39216       1
   39213   39204   39210   39222       1   39213   39204   39210   39225       1
   39213   39228  -39243   39225       1   39213   39228   39249   39264       1
   39213   39228   39249   39267       1   39213   39231  -39252   39264       1
   39210   39204   39207   39216       1   39210   39204   39213   39228       1
   39210   39204   39213   39231       1   39210   39222  -39234   39216       1
   39210   39225  -39243   39228       1   39207   39204   39210   39222       1
   39207   39204   39210   39225       1   39207   39204   39213   39228       1
   39207   39204   39213   39231       1   39207   39216  -39234   39222       1
   39204   39207   39216   39234       1   39204   39210  -39222   39234       1
   39204   39210   39225   39243       1   39204   39213  -39228   39243       1
   39204   39213   39228   39249       1   39204   39213   39231   39252       1
   39393   39381   39390   39399       1   39393   39402  -39408   39399       1
   39390   39381   39393   39402       1   39390   39399  -39408   39402       1
   39384   39390   39381   39393       1   39384   39390   39399   39408       1
   39381   39390   39399   39408       1   39381   39393  -39402   39408       1
   39375   39357   39372   39381       1   39375   39384  -39390   39381       1
   39375   39384   39390   39399       1   39372   39357   39375   39384       1
   39372   39381  -39390   39384       1   39372   39381   39390   39399       1
   39372   39381   39393   39402       1   39360   39372   39357   39375       1
   39360   39372   39381   39390       1   39360   39372   39381   39393       1
   39357   39372   39381   39390       1   39357   39372   39381   39393       1
   39357   39375  -39384   39390       1   39351   39336   39357   39372       1
   39351   39336   39357   39375       1   39339   39321   39336   39351       1
   39339   39321   39336   39357       1   39339   39360  -39372   39357       1
   39339   39360   39372   39381       1   39336   39321   39339   39360       1
   39336   39357  -39372   39360       1   39336   39357   39372   39381       1
   39336   39357   39375   39384       1   39333   39318   39330   39342       1
   39333   39351   39336   39357       1   39330   39318   39333   39351       1
   39321   39312   39315   39324       1   39321   39312   39318   39330       1
   39321   39312   39318   39333       1   39321   39336  -39351   39333       1
   39321   39336   39357   39372       1   39321   39336   39357   39375       1
   39321   39339  -39360   39372       1   39318   39312   39315   39324       1
   39318   39312   39321   39336       1   39318   39312   39321   39339       1
   39318   39330  -39342   39324       1   39318   39333  -39351   39336       1
   39315   39312   39318   39330       1   39315   39312   39318   39333       1
   39315   39312   39321   39336       1   39315   39312   39321   39339       1
   39315   39324  -39342   39330       1   39312   39315   39324   39342       1
   39312   39318  -39330   39342       1   39312   39318   39333   39351       1
   39312   39321  -39336   39351       1   39312   39321   39336   39357       1
   39312   39321   39339   39360       1   39501   39489   39498   39507       1
   39501   39510  -39516   39507       1   39498   39489   39501   39510       1
   39498   39507  -39516   39510       1   39492   39498   39489   39501       1
   39492   39498   39507   39516       1   39489   39498   39507   39516       1
   39489   39501  -39510   39516       1   39483   39465   39480   39489       1
   39483   39492  -39498   39489       1   39483   39492   39498   39507       1
   39480   39465   39483   39492       1   39480   39489  -39498   39492       1
   39480   39489   39498   39507       1   39480   39489   39501   39510       1
   39468   39480   39465   39483       1   39468   39480   39489   39498       1
   39468   39480   39489   39501       1   39465   39480   39489   39498       1
   39465   39480   39489   39501       1   39465   39483  -39492   39498       1
   39459   39444   39465   39480       1   39459   39444   39465   39483       1
   39447   39429   39444   39459       1   39447   39429   39444   39465       1
   39447   39468  -39480   39465       1   39447   39468   39480   39489       1
   39444   39429   39447   39468       1   39444   39465  -39480   39468       1
   39444   39465   39480   39489       1   39444   39465   39483   39492       1
   39441   39426   39438   39450       1   39441   39459   39444   39465       1
   39438   39426   39441   39459       1   39429   39420   39423   39432       1
   39429   39420   39426   39438       1   39429   39420   39426   39441       1
   39429   39444  -39459   39441       1   39429   39444   39465   39480       1
   39429   39444   39465   39483       1   39429   39447  -39468   39480       1
   39426   39420   39423   39432       1   39426   39420   39429   39444       1
   39426   39420   39429   39447       1   39426   39438  -39450   39432       1
   39426   39441  -39459   39444       1   39423   39420   39426   39438       1
   39423   39420   39426   39441       1   39423   39420   39429   39444       1
   39423   39420   39429   39447       1   39423   39432  -39450   39438       1
   39420   39423   39432   39450       1   39420   39426  -39438   39450       1
   39420   39426   39441   39459       1   39420   39429  -39444   39459       1
   39420   39429   39444   39465       1   39420   39429   39447   39468       1
   39609   39597   39606   39615       1   39609   39618  -39624   39615       1
   39606   39597   39609   39618       1   39606   39615  -39624   39618       1
   39600   39606   39597   39609       1   39600   39606   39615   39624       1
   39597   39606   39615   39624       1   39597   39609  -39618   39624       1
   39591   39573   39588   39597       1   39591   39600  -39606   39597       1
   39591   39600   39606   39615       1   39588   39573   39591   39600       1
   39588   39597  -39606   39600       1   39588   39597   39606   39615       1
   39588   39597   39609   39618       1   39576   39588   39573   39591       1
   39576   39588   39597   39606       1   39576   39588   39597   39609       1
   39573   39588   39597   39606       1   39573   39588   39597   39609       1
   39573   39591  -39600   39606       1   39567   39552   39573   39588       1
   39567   39552   39573   39591       1   39555   39537   39552   39567       1
   39555   39537   39552   39573       1   39555   39576  -39588   39573       1
   39555   39576   39588   39597       1   39552   39537   39555   39576       1
   39552   39573  -39588   39576       1   39552   39573   39588   39597       1
   39552   39573   39591   39600       1   39549   39534   39546   39558       1
   39549   39567   39552   39573       1   39546   39534   39549   39567       1
   39537   39528   39531   39540       1   39537   39528   39534   39546       1
   39537   39528   39534   39549       1   39537   39552  -39567   39549       1
   39537   39552   39573   39588       1   39537   39552   39573   39591       1
   39537   39555  -39576   39588       1   39534   39528   39531   39540       1
   39534   39528   39537   39552       1   39534   39528   39537   39555       1
   39534   39546  -39558   39540       1   39534   39549  -39567   39552       1
   39531   39528   39534   39546       1   39531   39528   39534   39549       1
   39531   39528   39537   39552       1   39531   39528   39537   39555       1
   39531   39540  -39558   39546       1   39528   39531   39540   39558       1
   39528   39534  -39546   39558       1   39528   39534   39549   39567       1
   39528   39537  -39552   39567       1   39528   39537   39552   39573       1
   39528   39537   39555   39576       1   39717   39705   39714   39723       1
   39717   39726  -39732   39723       1   39714   39705   39717   39726       1
   39714   39723  -39732   39726       1   39708   39714   39705   39717       1
   39708   39714   39723   39732       1   39705   39714   39723   39732       1
   39705   39717  -39726   39732       1   39699   39681   39696   39705       1
   39699   39708  -39714   39705       1   39699   39708   39714   39723       1
   39696   39681   39699   39708       1   39696   39705  -39714   39708       1
   39696   39705   39714   39723       1   39696   39705   39717   39726       1
   39684   39696   39681   39699       1   39684   39696   39705   39714       1
   39684   39696   39705   39717       1   39681   39696   39705   39714       1
   39681   39696   39705   39717       1   39681   39699  -39708   39714       1
   39675   39660   39681   39696       1   39675   39660   39681   39699       1
   39663   39645   39660   39675       1   39663   39645   39660   39681       1
   39663   39684  -39696   39681       1   39663   39684   39696   39705       1
   39660   39645   39663   39684       1   39660   39681  -39696   39684       1
   39660   39681   39696   39705       1   39660   39681   39699   39708       1
   39657   39642   39654   39666       1   39657   39675   39660   39681       1
   39654   39642   39657   39675       1   39645   39636   39639   39648       1
   39645   39636   39642   39654       1   39645   39636   39642   39657       1
   39645   39660  -39675   39657       1   39645   39660   39681   39696       1
   39645   39660   39681   39699       1   39645   39663  -39684   39696       1
   39642   39636   39639   39648       1   39642   39636   39645   39660       1
   39642   39636   39645   39663       1   39642   39654  -39666   39648       1
   39642   39657  -39675   39660       1   39639   39636   39642   39654       1
   39639   39636   39642   39657       1   39639   39636   39645   39660       1
   39639   39636   39645   39663       1   39639   39648  -39666   39654       1
   39636   39639   39648   39666       1   39636   39642  -39654   39666       1
   39636   39642   39657   39675       1   39636   39645  -39660   39675       1
   39636   39645   39660   39681       1   39636   39645   39663   39684       1
   39825   39813   39822   39831       1   39825   39834  -39840   39831       1
   39822   39813   39825   39834       1   39822   39831  -39840   39834       1
   39816   39822   39813   39825       1   39816   39822   39831   39840       1
   39813   39822   39831   39840       1   39813   39825  -39834   39840       1
   39807   39789   39804   39813       1   39807   39816  -39822   39813       1
   39807   39816   39822   39831       1   39804   39789   39807   39816       1
   39804   39813  -39822   39816       1   39804   39813   39822   39831       1
   39804   39813   39825   39834       1   39792   39804   39789   39807       1
   39792   39804   39813   39822       1   39792   39804   39813   39825       1
   39789   39804   39813   39822       1   39789   39804   39813   39825       1
   39789   39807  -39816   39822       1   39783   39768   39789   39804       1
   39783   39768   39789   39807       1   39771   39753   39768   39783       1
   39771   39753   39768   39789       1   39771   39792  -39804   39789       1
   39771   39792   39804   39813       1   39768   39753   39771   39792       1
   39768   39789  -39804   39792       1   39768   39789   39804   39813       1
   39768   39789   39807   39816       1   39765   39750   39762   39774       1
   39765   39783   39768   39789       1   39762   39750   39765   39783       1
   39753   39744   39747   39756       1   39753   39744   39750   39762       1
   39753   39744   39750   39765       1   39753   39768  -39783   39765       1
   39753   39768   39789   39804       1   39753   39768   39789   39807       1
   39753   39771  -39792   39804       1   39750   39744   39747   39756       1
   39750   39744   39753   39768       1   39750   39744   39753   39771       1
   39750   39762  -39774   39756       1   39750   39765  -39783   39768       1
   39747   39744   39750   39762       1   39747   39744   39750   39765       1
   39747   39744   39753   39768       1   39747   39744   39753   39771       1
   39747   39756  -39774   39762       1   39744   39747   39756   39774       1
   39744   39750  -39762   39774       1   39744   39750   39765   39783       1
   39744   39753  -39768   39783       1   39744   39753   39768   39789       1
   39744   39753   39771   39792       1   39933   39921   39930   39939       1
   39933   39942  -39948   39939       1   39930   39921   39933   39942       1
   39930   39939  -39948   39942       1   39924   39930   39921   39933       1
   39924   39930   39939   39948       1   39921   39930   39939   39948       1
   39921   39933  -39942   39948       1   39915   39897   39912   39921       1
   39915   39924  -39930   39921       1   39915   39924   39930   39939       1
   39912   39897   39915   39924       1   39912   39921  -39930   39924       1
   39912   39921   39930   39939       1   39912   39921   39933   39942       1
   39900   39912   39897   39915       1   39900   39912   39921   39930       1
   39900   39912   39921   39933       1   39897   39912   39921   39930       1
   39897   39912   39921   39933       1   39897   39915  -39924   39930       1
   39891   39876   39897   39912       1   39891   39876   39897   39915       1
   39879   39861   39876   39891       1   39879   39861   39876   39897       1
   39879   39900  -39912   39897       1   39879   39900   39912   39921       1
   39876   39861   39879   39900       1   39876   39897  -39912   39900       1
   39876   39897   39912   39921       1   39876   39897   39915   39924       1
   39873   39858   39870   39882       1   39873   39891   39876   39897       1
   39870   39858   39873   39891       1   39861   39852   39855   39864       1
   39861   39852   39858   39870       1   39861   39852   39858   39873       1
   39861   39876  -39891   39873       1   39861   39876   39897   39912       1
   39861   39876   39897   39915       1   39861   39879  -39900   39912       1
   39858   39852   39855   39864       1   39858   39852   39861   39876       1
   39858   39852   39861   39879       1   39858   39870  -39882   39864       1
   39858   39873  -39891   39876       1   39855   39852   39858   39870       1
   39855   39852   39858   39873       1   39855   39852   39861   39876       1
   39855   39852   39861   39879       1   39855   39864  -39882   39870       1
   39852   39855   39864   39882       1   39852   39858  -39870   39882       1
   39852   39858   39873   39891       1   39852   39861  -39876   39891       1
   39852   39861   39876   39897       1   39852   39861   39879   39900       1
   40041   40029   40038   40047       1   40041   40050  -40056   40047       1
   40038   40029   40041   40050       1   40038   40047  -40056   40050       1
   40032   40038   40029   40041       1   40032   40038   40047   40056       1
   40029   40038   40047   40056       1   40029   40041  -40050   40056       1
   40023   40005   40020   40029       1   40023   40032  -40038   40029       1
   40023   40032   40038   40047       1   40020   40005   40023   40032       1
   40020   40029  -40038   40032       1   40020   40029   40038   40047       1
   40020   40029   40041   40050       1   40008   40020   40005   40023       1
   40008   40020   40029   40038       1   40008   40020   40029   40041       1
   40005   40020   40029   40038       1   40005   40020   40029   40041       1
   40005   40023  -40032   40038       1   39999   39984   40005   40020       1
   39999   39984   40005   40023       1   39987   39969   39984   39999       1
   39987   39969   39984   40005       1   39987   40008  -40020   40005       1
   39987   40008   40020   40029       1   39984   39969   39987   40008       1
   39984   40005  -40020   40008       1   39984   40005   40020   40029       1
   39984   40005   40023   40032       1   39981   39966   39978   39990       1
   39981   39999   39984   40005       1   39978   39966   39981   39999       1
   39969   39960   39963   39972       1   39969   39960   39966   39978       1
   39969   39960   39966   39981       1   39969   39984  -39999   39981       1
   39969   39984   40005   40020       1   39969   39984   40005   40023       1
   39969   39987  -40008   40020       1   39966   39960   39963   39972       1
   39966   39960   39969   39984       1   39966   39960   39969   39987       1
   39966   39978  -39990   39972       1   39966   39981  -39999   39984       1
   39963   39960   39966   39978       1   39963   39960   39966   39981       1
   39963   39960   39969   39984       1   39963   39960   39969   39987       1
   39963   39972  -39990   39978       1   39960   39963   39972   39990       1
   39960   39966  -39978   39990       1   39960   39966   39981   39999       1
   39960   39969  -39984   39999       1   39960   39969   39984   40005       1
   39960   39969   39987   40008       1   40149   40137   40146   40155       1
   40149   40158  -40164   40155       1   40146   40137   40149   40158       1
   40146   40155  -40164   40158       1   40140   40146   40137   40149       1
   40140   40146   40155   40164       1   40137   40146   40155   40164       1
   40137   40149  -40158   40164       1   40131   40113   40128   40137       1
   40131   40140  -40146   40137       1   40131   40140   40146   40155       1
   40128   40113   40131   40140       1   40128   40137  -40146   40140       1
   40128   40137   40146   40155       1   40128   40137   40149   40158       1
   40116   40128   40113   40131       1   40116   40128   40137   40146       1
   40116   40128   40137   40149       1   40113   40128   40137   40146       1
   40113   40128   40137   40149       1   40113   40131  -40140   40146       1
   40107   40092   40113   40128       1   40107   40092   40113   40131       1
   40095   40077   40092   40107       1   40095   40077   40092   40113       1
   40095   40116  -40128   40113       1   40095   40116   40128   40137       1
   40092   40077   40095   40116       1   40092   40113  -40128   40116       1
   40092   40113   40128   40137       1   40092   40113   40131   40140       1
   40089   40074   40086   40098       1   40089   40107   40092   40113       1
   40086   40074   40089   40107       1   40077   40068   40071   40080       1
   40077   40068   40074   40086       1   40077   40068   40074   40089       1
   40077   40092  -40107   40089       1   40077   40092   40113   40128       1
   40077   40092   40113   40131       1   40077   40095  -40116   40128       1
   40074   40068   40071   40080       1   40074   40068   40077   40092       1
   40074   40068   40077   40095       1   40074   40086  -40098   40080       1
   40074   40089  -40107   40092       1   40071   40068   40074   40086       1
   40071   40068   40074   40089       1   40071   40068   40077   40092       1
   40071   40068   40077   40095       1   40071   40080  -40098   40086       1
   40068   40071   40080   40098       1   40068   40074  -40086   40098       1
   40068   40074   40089   40107       1   40068   40077  -40092   40107       1
   40068   40077   40092   40113       1   40068   40077   40095   40116       1
   40257   40245   40254   40263       1   40257   40266  -40272   40263       1
   40254   40245   40257   40266       1   40254   40263  -40272   40266       1
   40248   40254   40245   40257       1   40248   40254   40263   40272       1
   40245   40254   40263   40272       1   40245   40257  -40266   40272       1
   40239   40221   40236   40245       1   40239   40248  -40254   40245       1
   40239   40248   40254   40263       1   40236   40221   40239   40248       1
   40236   40245  -40254   40248       1   40236   40245   40254   40263       1
   40236   40245   40257   40266       1   40224   40236   40221   40239       1
   40224   40236   40245   40254       1   40224   40236   40245   40257       1
   40221   40236   40245   40254       1   40221   40236   40245   40257       1
   40221   40239  -40248   40254       1   40215   40200   40221   40236       1
   40215   40200   40221   40239       1   40203   40185   40200   40215       1
   40203   40185   40200   40221       1   40203   40224  -40236   40221       1
   40203   40224   40236   40245       1   40200   40185   40203   40224       1
   40200   40221  -40236   40224       1   40200   40221   40236   40245       1
   40200   40221   40239   40248       1   40197   40182   40194   40206       1
   40197   40215   40200   40221       1   40194   40182   40197   40215       1
   40185   40176   40179   40188       1   40185   40176   40182   40194       1
   40185   40176   40182   40197       1   40185   40200  -40215   40197       1
   40185   40200   40221   40236       1   40185   40200   40221   40239       1
   40185   40203  -40224   40236       1   40182   40176   40179   40188       1
   40182   40176   40185   40200       1   40182   40176   40185   40203       1
   40182   40194  -40206   40188       1   40182   40197  -40215   40200       1
   40179   40176   40182   40194       1   40179   40176   40182   40197       1
   40179   40176   40185   40200       1   40179   40176   40185   40203       1
   40179   40188  -40206   40194       1   40176   40179   40188   40206       1
   40176   40182  -40194   40206       1   40176   40182   40197   40215       1
   40176   40185  -40200   40215       1   40176   40185   40200   40221       1
   40176   40185   40203   40224       1   40365   40353   40362   40371       1
   40365   40374  -40380   40371       1   40362   40353   40365   40374       1
   40362   40371  -40380   40374       1   40356   40362   40353   40365       1
   40356   40362   40371   40380       1   40353   40362   40371   40380       1
   40353   40365  -40374   40380       1   40347   40329   40344   40353       1
   40347   40356  -40362   40353       1   40347   40356   40362   40371       1
   40344   40329   40347   40356       1   40344   40353  -40362   40356       1
   40344   40353   40362   40371       1   40344   40353   40365   40374       1
   40332   40344   40329   40347       1   40332   40344   40353   40362       1
   40332   40344   40353   40365       1   40329   40344   40353   40362       1
   40329   40344   40353   40365       1   40329   40347  -40356   40362       1
   40323   40308   40329   40344       1   40323   40308   40329   40347       1
   40311   40293   40308   40323       1   40311   40293   40308   40329       1
   40311   40332  -40344   40329       1   40311   40332   40344   40353       1
   40308   40293   40311   40332       1   40308   40329  -40344   40332       1
   40308   40329   40344   40353       1   40308   40329   40347   40356       1
   40305   40290   40302   40314       1   40305   40323   40308   40329       1
   40302   40290   40305   40323       1   40293   40284   40287   40296       1
   40293   40284   40290   40302       1   40293   40284   40290   40305       1
   40293   40308  -40323   40305       1   40293   40308   40329   40344       1
   40293   40308   40329   40347       1   40293   40311  -40332   40344       1
   40290   40284   40287   40296       1   40290   40284   40293   40308       1
   40290   40284   40293   40311       1   40290   40302  -40314   40296       1
   40290   40305  -40323   40308       1   40287   40284   40290   40302       1
   40287   40284   40290   40305       1   40287   40284   40293   40308       1
   40287   40284   40293   40311       1   40287   40296  -40314   40302       1
   40284   40287   40296   40314       1   40284   40290  -40302   40314       1
   40284   40290   40305   40323       1   40284   40293  -40308   40323       1
   40284   40293   40308   40329       1   40284   40293   40311   40332       1
   40473   40461   40470   40479       1   40473   40482  -40488   40479       1
   40470   40461   40473   40482       1   40470   40479  -40488   40482       1
   40464   40470   40461   40473       1   40464   40470   40479   40488       1
   40461   40470   40479   40488       1   40461   40473  -40482   40488       1
   40455   40437   40452   40461       1   40455   40464  -40470   40461       1
   40455   40464   40470   40479       1   40452   40437   40455   40464       1
   40452   40461  -40470   40464       1   40452   40461   40470   40479       1
   40452   40461   40473   40482       1   40440   40452   40437   40455       1
   40440   40452   40461   40470       1   40440   40452   40461   40473       1
   40437   40452   40461   40470       1   40437   40452   40461   40473       1
   40437   40455  -40464   40470       1   40431   40416   40437   40452       1
   40431   40416   40437   40455       1   40419   40401   40416   40431       1
   40419   40401   40416   40437       1   40419   40440  -40452   40437       1
   40419   40440   40452   40461       1   40416   40401   40419   40440       1
   40416   40437  -40452   40440       1   40416   40437   40452   40461       1
   40416   40437   40455   40464       1   40413   40398   40410   40422       1
   40413   40431   40416   40437       1   40410   40398   40413   40431       1
   40401   40392   40395   40404       1   40401   40392   40398   40410       1
   40401   40392   40398   40413       1   40401   40416  -40431   40413       1
   40401   40416   40437   40452       1   40401   40416   40437   40455       1
   40401   40419  -40440   40452       1   40398   40392   40395   40404       1
   40398   40392   40401   40416       1   40398   40392   40401   40419       1
   40398   40410  -40422   40404       1   40398   40413  -40431   40416       1
   40395   40392   40398   40410       1   40395   40392   40398   40413       1
   40395   40392   40401   40416       1   40395   40392   40401   40419       1
   40395   40404  -40422   40410       1   40392   40395   40404   40422       1
   40392   40398  -40410   40422       1   40392   40398   40413   40431       1
   40392   40401  -40416   40431       1   40392   40401   40416   40437       1
   40392   40401   40419   40440       1   40581   40569   40578   40587       1
   40581   40590  -40596   40587       1   40578   40569   40581   40590       1
   40578   40587  -40596   40590       1   40572   40578   40569   40581       1
   40572   40578   40587   40596       1   40569   40578   40587   40596       1
   40569   40581  -40590   40596       1   40563   40545   40560   40569       1
   40563   40572  -40578   40569       1   40563   40572   40578   40587       1
   40560   40545   40563   40572       1   40560   40569  -40578   40572       1
   40560   40569   40578   40587       1   40560   40569   40581   40590       1
   40548   40560   40545   40563       1   40548   40560   40569   40578       1
   40548   40560   40569   40581       1   40545   40560   40569   40578       1
   40545   40560   40569   40581       1   40545   40563  -40572   40578       1
   40539   40524   40545   40560       1   40539   40524   40545   40563       1
   40527   40509   40524   40539       1   40527   40509   40524   40545       1
   40527   40548  -40560   40545       1   40527   40548   40560   40569       1
   40524   40509   40527   40548       1   40524   40545  -40560   40548       1
   40524   40545   40560   40569       1   40524   40545   40563   40572       1
   40521   40506   40518   40530       1   40521   40539   40524   40545       1
   40518   40506   40521   40539       1   40509   40500   40503   40512       1
   40509   40500   40506   40518       1   40509   40500   40506   40521       1
   40509   40524  -40539   40521       1   40509   40524   40545   40560       1
   40509   40524   40545   40563       1   40509   40527  -40548   40560       1
   40506   40500   40503   40512       1   40506   40500   40509   40524       1
   40506   40500   40509   40527       1   40506   40518  -40530   40512       1
   40506   40521  -40539   40524       1   40503   40500   40506   40518       1
   40503   40500   40506   40521       1   40503   40500   40509   40524       1
   40503   40500   40509   40527       1   40503   40512  -40530   40518       1
   40500   40503   40512   40530       1   40500   40506  -40518   40530       1
   40500   40506   40521   40539       1   40500   40509  -40524   40539       1
   40500   40509   40524   40545       1   40500   40509   40527   40548       1
   40689   40677   40686   40695       1   40689   40698  -40704   40695       1
   40686   40677   40689   40698       1   40686   40695  -40704   40698       1
   40680   40686   40677   40689       1   40680   40686   40695   40704       1
   40677   40686   40695   40704       1   40677   40689  -40698   40704       1
   40671   40653   40668   40677       1   40671   40680  -40686   40677       1
   40671   40680   40686   40695       1   40668   40653   40671   40680       1
   40668   40677  -40686   40680       1   40668   40677   40686   40695       1
   40668   40677   40689   40698       1   40656   40668   40653   40671       1
   40656   40668   40677   40686       1   40656   40668   40677   40689       1
   40653   40668   40677   40686       1   40653   40668   40677   40689       1
   40653   40671  -40680   40686       1   40647   40632   40653   40668       1
   40647   40632   40653   40671       1   40635   40617   40632   40647       1
   40635   40617   40632   40653       1   40635   40656  -40668   40653       1
   40635   40656   40668   40677       1   40632   40617   40635   40656       1
   40632   40653  -40668   40656       1   40632   40653   40668   40677       1
   40632   40653   40671   40680       1   40629   40614   40626   40638       1
   40629   40647   40632   40653       1   40626   40614   40629   40647       1
   40617   40608   40611   40620       1   40617   40608   40614   40626       1
   40617   40608   40614   40629       1   40617   40632  -40647   40629       1
   40617   40632   40653   40668       1   40617   40632   40653   40671       1
   40617   40635  -40656   40668       1   40614   40608   40611   40620       1
   40614   40608   40617   40632       1   40614   40608   40617   40635       1
   40614   40626  -40638   40620       1   40614   40629  -40647   40632       1
   40611   40608   40614   40626       1   40611   40608   40614   40629       1
   40611   40608   40617   40632       1   40611   40608   40617   40635       1
   40611   40620  -40638   40626       1   40608   40611   40620   40638       1
   40608   40614  -40626   40638       1   40608   40614   40629   40647       1
   40608   40617  -40632   40647       1   40608   40617   40632   40653       1
   40608   40617   40635   40656       1   40797   40785   40794   40803       1
   40797   40806  -40812   40803       1   40794   40785   40797   40806       1
   40794   40803  -40812   40806       1   40788   40794   40785   40797       1
   40788   40794   40803   40812       1   40785   40794   40803   40812       1
   40785   40797  -40806   40812       1   40779   40761   40776   40785       1
   40779   40788  -40794   40785       1   40779   40788   40794   40803       1
   40776   40761   40779   40788       1   40776   40785  -40794   40788       1
   40776   40785   40794   40803       1   40776   40785   40797   40806       1
   40764   40776   40761   40779       1   40764   40776   40785   40794       1
   40764   40776   40785   40797       1   40761   40776   40785   40794       1
   40761   40776   40785   40797       1   40761   40779  -40788   40794       1
   40755   40740   40761   40776       1   40755   40740   40761   40779       1
   40743   40725   40740   40755       1   40743   40725   40740   40761       1
   40743   40764  -40776   40761       1   40743   40764   40776   40785       1
   40740   40725   40743   40764       1   40740   40761  -40776   40764       1
   40740   40761   40776   40785       1   40740   40761   40779   40788       1
   40737   40722   40734   40746       1   40737   40755   40740   40761       1
   40734   40722   40737   40755       1   40725   40716   40719   40728       1
   40725   40716   40722   40734       1   40725   40716   40722   40737       1
   40725   40740  -40755   40737       1   40725   40740   40761   40776       1
   40725   40740   40761   40779       1   40725   40743  -40764   40776       1
   40722   40716   40719   40728       1   40722   40716   40725   40740       1
   40722   40716   40725   40743       1   40722   40734  -40746   40728       1
   40722   40737  -40755   40740       1   40719   40716   40722   40734       1
   40719   40716   40722   40737       1   40719   40716   40725   40740       1
   40719   40716   40725   40743       1   40719   40728  -40746   40734       1
   40716   40719   40728   40746       1   40716   40722  -40734   40746       1
   40716   40722   40737   40755       1   40716   40725  -40740   40755       1
   40716   40725   40740   40761       1   40716   40725   40743   40764       1
   40905   40893   40902   40911       1   40905   40914  -40920   40911       1
   40902   40893   40905   40914       1   40902   40911  -40920   40914       1
   40896   40902   40893   40905       1   40896   40902   40911   40920       1
   40893   40902   40911   40920       1   40893   40905  -40914   40920       1
   40887   40869   40884   40893       1   40887   40896  -40902   40893       1
   40887   40896   40902   40911       1   40884   40869   40887   40896       1
   40884   40893  -40902   40896       1   40884   40893   40902   40911       1
   40884   40893   40905   40914       1   40872   40884   40869   40887       1
   40872   40884   40893   40902       1   40872   40884   40893   40905       1
   40869   40884   40893   40902       1   40869   40884   40893   40905       1
   40869   40887  -40896   40902       1   40863   40848   40869   40884       1
   40863   40848   40869   40887       1   40851   40833   40848   40863       1
   40851   40833   40848   40869       1   40851   40872  -40884   40869       1
   40851   40872   40884   40893       1   40848   40833   40851   40872       1
   40848   40869  -40884   40872       1   40848   40869   40884   40893       1
   40848   40869   40887   40896       1   40845   40830   40842   40854       1
   40845   40863   40848   40869       1   40842   40830   40845   40863       1
   40833   40824   40827   40836       1   40833   40824   40830   40842       1
   40833   40824   40830   40845       1   40833   40848  -40863   40845       1
   40833   40848   40869   40884       1   40833   40848   40869   40887       1
   40833   40851  -40872   40884       1   40830   40824   40827   40836       1
   40830   40824   40833   40848       1   40830   40824   40833   40851       1
   40830   40842  -40854   40836       1   40830   40845  -40863   40848       1
   40827   40824   40830   40842       1   40827   40824   40830   40845       1
   40827   40824   40833   40848       1   40827   40824   40833   40851       1
   40827   40836  -40854   40842       1   40824   40827   40836   40854       1
   40824   40830  -40842   40854       1   40824   40830   40845   40863       1
   40824   40833  -40848   40863       1   40824   40833   40848   40869       1
   40824   40833   40851   40872       1   41013   41001   41010   41019       1
   41013   41022  -41028   41019       1   41010   41001   41013   41022       1
   41010   41019  -41028   41022       1   41004   41010   41001   41013       1
   41004   41010   41019   41028       1   41001   41010   41019   41028       1
   41001   41013  -41022   41028       1   40995   40977   40992   41001       1
   40995   41004  -41010   41001       1   40995   41004   41010   41019       1
   40992   40977   40995   41004       1   40992   41001  -41010   41004       1
   40992   41001   41010   41019       1   40992   41001   41013   41022       1
   40980   40992   40977   40995       1   40980   40992   41001   41010       1
   40980   40992   41001   41013       1   40977   40992   41001   41010       1
   40977   40992   41001   41013       1   40977   40995  -41004   41010       1
   40971   40956   40977   40992       1   40971   40956   40977   40995       1
   40959   40941   40956   40971       1   40959   40941   40956   40977       1
   40959   40980  -40992   40977       1   40959   40980   40992   41001       1
   40956   40941   40959   40980       1   40956   40977  -40992   40980       1
   40956   40977   40992   41001       1   40956   40977   40995   41004       1
   40953   40938   40950   40962       1   40953   40971   40956   40977       1
   40950   40938   40953   40971       1   40941   40932   40935   40944       1
   40941   40932   40938   40950       1   40941   40932   40938   40953       1
   40941   40956  -40971   40953       1   40941   40956   40977   40992       1
   40941   40956   40977   40995       1   40941   40959  -40980   40992       1
   40938   40932   40935   40944       1   40938   40932   40941   40956       1
   40938   40932   40941   40959       1   40938   40950  -40962   40944       1
   40938   40953  -40971   40956       1   40935   40932   40938   40950       1
   40935   40932   40938   40953       1   40935   40932   40941   40956       1
   40935   40932   40941   40959       1   40935   40944  -40962   40950       1
   40932   40935   40944   40962       1   40932   40938  -40950   40962       1
   40932   40938   40953   40971       1   40932   40941  -40956   40971       1
   40932   40941   40956   40977       1   40932   40941   40959   40980       1
   41121   41109   41118   41127       1   41121   41130  -41136   41127       1
   41118   41109   41121   41130       1   41118   41127  -41136   41130       1
   41112   41118   41109   41121       1   41112   41118   41127   41136       1
   41109   41118   41127   41136       1   41109   41121  -41130   41136       1
   41103   41085   41100   41109       1   41103   41112  -41118   41109       1
   41103   41112   41118   41127       1   41100   41085   41103   41112       1
   41100   41109  -41118   41112       1   41100   41109   41118   41127       1
   41100   41109   41121   41130       1   41088   41100   41085   41103       1
   41088   41100   41109   41118       1   41088   41100   41109   41121       1
   41085   41100   41109   41118       1   41085   41100   41109   41121       1
   41085   41103  -41112   41118       1   41079   41064   41085   41100       1
   41079   41064   41085   41103       1   41067   41049   41064   41079       1
   41067   41049   41064   41085       1   41067   41088  -41100   41085       1
   41067   41088   41100   41109       1   41064   41049   41067   41088       1
   41064   41085  -41100   41088       1   41064   41085   41100   41109       1
   41064   41085   41103   41112       1   41061   41046   41058   41070       1
   41061   41079   41064   41085       1   41058   41046   41061   41079       1
   41049   41040   41043   41052       1   41049   41040   41046   41058       1
   41049   41040   41046   41061       1   41049   41064  -41079   41061       1
   41049   41064   41085   41100       1   41049   41064   41085   41103       1
   41049   41067  -41088   41100       1   41046   41040   41043   41052       1
   41046   41040   41049   41064       1   41046   41040   41049   41067       1
   41046   41058  -41070   41052       1   41046   41061  -41079   41064       1
   41043   41040   41046   41058       1   41043   41040   41046   41061       1
   41043   41040   41049   41064       1   41043   41040   41049   41067       1
   41043   41052  -41070   41058       1   41040   41043   41052   41070       1
   41040   41046  -41058   41070       1   41040   41046   41061   41079       1
   41040   41049  -41064   41079       1   41040   41049   41064   41085       1
   41040   41049   41067   41088       1   41229   41217   41226   41235       1
   41229   41238  -41244   41235       1   41226   41217   41229   41238       1
   41226   41235  -41244   41238       1   41220   41226   41217   41229       1
   41220   41226   41235   41244       1   41217   41226   41235   41244       1
   41217   41229  -41238   41244       1   41211   41193   41208   41217       1
   41211   41220  -41226   41217       1   41211   41220   41226   41235       1
   41208   41193   41211   41220       1   41208   41217  -41226   41220       1
   41208   41217   41226   41235       1   41208   41217   41229   41238       1
   41196   41208   41193   41211       1   41196   41208   41217   41226       1
   41196   41208   41217   41229       1   41193   41208   41217   41226       1
   41193   41208   41217   41229       1   41193   41211  -41220   41226       1
   41187   41172   41193   41208       1   41187   41172   41193   41211       1
   41175   41157   41172   41187       1   41175   41157   41172   41193       1
   41175   41196  -41208   41193       1   41175   41196   41208   41217       1
   41172   41157   41175   41196       1   41172   41193  -41208   41196       1
   41172   41193   41208   41217       1   41172   41193   41211   41220       1
   41169   41154   41166   41178       1   41169   41187   41172   41193       1
   41166   41154   41169   41187       1   41157   41148   41151   41160       1
   41157   41148   41154   41166       1   41157   41148   41154   41169       1
   41157   41172  -41187   41169       1   41157   41172   41193   41208       1
   41157   41172   41193   41211       1   41157   41175  -41196   41208       1
   41154   41148   41151   41160       1   41154   41148   41157   41172       1
   41154   41148   41157   41175       1   41154   41166  -41178   41160       1
   41154   41169  -41187   41172       1   41151   41148   41154   41166       1
   41151   41148   41154   41169       1   41151   41148   41157   41172       1
   41151   41148   41157   41175       1   41151   41160  -41178   41166       1
   41148   41151   41160   41178       1   41148   41154  -41166   41178       1
   41148   41154   41169   41187       1   41148   41157  -41172   41187       1
   41148   41157   41172   41193       1   41148   41157   41175   41196       1
   41337   41325   41334   41343       1   41337   41346  -41352   41343       1
   41334   41325   41337   41346       1   41334   41343  -41352   41346       1
   41328   41334   41325   41337       1   41328   41334   41343   41352       1
   41325   41334   41343   41352       1   41325   41337  -41346   41352       1
   41319   41301   41316   41325       1   41319   41328  -41334   41325       1
   41319   41328   41334   41343       1   41316   41301   41319   41328       1
   41316   41325  -41334   41328       1   41316   41325   41334   41343       1
   41316   41325   41337   41346       1   41304   41316   41301   41319       1
   41304   41316   41325   41334       1   41304   41316   41325   41337       1
   41301   41316   41325   41334       1   41301   41316   41325   41337       1
   41301   41319  -41328   41334       1   41295   41280   41301   41316       1
   41295   41280   41301   41319       1   41283   41265   41280   41295       1
   41283   41265   41280   41301       1   41283   41304  -41316   41301       1
   41283   41304   41316   41325       1   41280   41265   41283   41304       1
   41280   41301  -41316   41304       1   41280   41301   41316   41325       1
   41280   41301   41319   41328       1   41277   41262   41274   41286       1
   41277   41295   41280   41301       1   41274   41262   41277   41295       1
   41265   41256   41259   41268       1   41265   41256   41262   41274       1
   41265   41256   41262   41277       1   41265   41280  -41295   41277       1
   41265   41280   41301   41316       1   41265   41280   41301   41319       1
   41265   41283  -41304   41316       1   41262   41256   41259   41268       1
   41262   41256   41265   41280       1   41262   41256   41265   41283       1
   41262   41274  -41286   41268       1   41262   41277  -41295   41280       1
   41259   41256   41262   41274       1   41259   41256   41262   41277       1
   41259   41256   41265   41280       1   41259   41256   41265   41283       1
   41259   41268  -41286   41274       1   41256   41259   41268   41286       1
   41256   41262  -41274   41286       1   41256   41262   41277   41295       1
   41256   41265  -41280   41295       1   41256   41265   41280   41301       1
   41256   41265   41283   41304       1   41445   41433   41442   41451       1
   41445   41454  -41460   41451       1   41442   41433   41445   41454       1
   41442   41451  -41460   41454       1   41436   41442   41433   41445       1
   41436   41442   41451   41460       1   41433   41442   41451   41460       1
   41433   41445  -41454   41460       1   41427   41409   41424   41433       1
   41427   41436  -41442   41433       1   41427   41436   41442   41451       1
   41424   41409   41427   41436       1   41424   41433  -41442   41436       1
   41424   41433   41442   41451       1   41424   41433   41445   41454       1
   41412   41424   41409   41427       1   41412   41424   41433   41442       1
   41412   41424   41433   41445       1   41409   41424   41433   41442       1
   41409   41424   41433   41445       1   41409   41427  -41436   41442       1
   41403   41388   41409   41424       1   41403   41388   41409   41427       1
   41391   41373   41388   41403       1   41391   41373   41388   41409       1
   41391   41412  -41424   41409       1   41391   41412   41424   41433       1
   41388   41373   41391   41412       1   41388   41409  -41424   41412       1
   41388   41409   41424   41433       1   41388   41409   41427   41436       1
   41385   41370   41382   41394       1   41385   41403   41388   41409       1
   41382   41370   41385   41403       1   41373   41364   41367   41376       1
   41373   41364   41370   41382       1   41373   41364   41370   41385       1
   41373   41388  -41403   41385       1   41373   41388   41409   41424       1
   41373   41388   41409   41427       1   41373   41391  -41412   41424       1
   41370   41364   41367   41376       1   41370   41364   41373   41388       1
   41370   41364   41373   41391       1   41370   41382  -41394   41376       1
   41370   41385  -41403   41388       1   41367   41364   41370   41382       1
   41367   41364   41370   41385       1   41367   41364   41373   41388       1
   41367   41364   41373   41391       1   41367   41376  -41394   41382       1
   41364   41367   41376   41394       1   41364   41370  -41382   41394       1
   41364   41370   41385   41403       1   41364   41373  -41388   41403       1
   41364   41373   41388   41409       1   41364   41373   41391   41412       1
   41553   41541   41550   41559       1   41553   41562  -41568   41559       1
   41550   41541   41553   41562       1   41550   41559  -41568   41562       1
   41544   41550   41541   41553       1   41544   41550   41559   41568       1
   41541   41550   41559   41568       1   41541   41553  -41562   41568       1
   41535   41517   41532   41541       1   41535   41544  -41550   41541       1
   41535   41544   41550   41559       1   41532   41517   41535   41544       1
   41532   41541  -41550   41544       1   41532   41541   41550   41559       1
   41532   41541   41553   41562       1   41520   41532   41517   41535       1
   41520   41532   41541   41550       1   41520   41532   41541   41553       1
   41517   41532   41541   41550       1   41517   41532   41541   41553       1
   41517   41535  -41544   41550       1   41511   41496   41517   41532       1
   41511   41496   41517   41535       1   41499   41481   41496   41511       1
   41499   41481   41496   41517       1   41499   41520  -41532   41517       1
   41499   41520   41532   41541       1   41496   41481   41499   41520       1
   41496   41517  -41532   41520       1   41496   41517   41532   41541       1
   41496   41517   41535   41544       1   41493   41478   41490   41502       1
   41493   41511   41496   41517       1   41490   41478   41493   41511       1
   41481   41472   41475   41484       1   41481   41472   41478   41490       1
   41481   41472   41478   41493       1   41481   41496  -41511   41493       1
   41481   41496   41517   41532       1   41481   41496   41517   41535       1
   41481   41499  -41520   41532       1   41478   41472   41475   41484       1
   41478   41472   41481   41496       1   41478   41472   41481   41499       1
   41478   41490  -41502   41484       1   41478   41493  -41511   41496       1
   41475   41472   41478   41490       1   41475   41472   41478   41493       1
   41475   41472   41481   41496       1   41475   41472   41481   41499       1
   41475   41484  -41502   41490       1   41472   41475   41484   41502       1
   41472   41478  -41490   41502       1   41472   41478   41493   41511       1
   41472   41481  -41496   41511       1   41472   41481   41496   41517       1
   41472   41481   41499   41520       1   41661   41649   41658   41667       1
   41661   41670  -41676   41667       1   41658   41649   41661   41670       1
   41658   41667  -41676   41670       1   41652   41658   41649   41661       1
   41652   41658   41667   41676       1   41649   41658   41667   41676       1
   41649   41661  -41670   41676       1   41643   41625   41640   41649       1
   41643   41652  -41658   41649       1   41643   41652   41658   41667       1
   41640   41625   41643   41652       1   41640   41649  -41658   41652       1
   41640   41649   41658   41667       1   41640   41649   41661   41670       1
   41628   41640   41625   41643       1   41628   41640   41649   41658       1
   41628   41640   41649   41661       1   41625   41640   41649   41658       1
   41625   41640   41649   41661       1   41625   41643  -41652   41658       1
   41619   41604   41625   41640       1   41619   41604   41625   41643       1
   41607   41589   41604   41619       1   41607   41589   41604   41625       1
   41607   41628  -41640   41625       1   41607   41628   41640   41649       1
   41604   41589   41607   41628       1   41604   41625  -41640   41628       1
   41604   41625   41640   41649       1   41604   41625   41643   41652       1
   41601   41586   41598   41610       1   41601   41619   41604   41625       1
   41598   41586   41601   41619       1   41589   41580   41583   41592       1
   41589   41580   41586   41598       1   41589   41580   41586   41601       1
   41589   41604  -41619   41601       1   41589   41604   41625   41640       1
   41589   41604   41625   41643       1   41589   41607  -41628   41640       1
   41586   41580   41583   41592       1   41586   41580   41589   41604       1
   41586   41580   41589   41607       1   41586   41598  -41610   41592       1
   41586   41601  -41619   41604       1   41583   41580   41586   41598       1
   41583   41580   41586   41601       1   41583   41580   41589   41604       1
   41583   41580   41589   41607       1   41583   41592  -41610   41598       1
   41580   41583   41592   41610       1   41580   41586  -41598   41610       1
   41580   41586   41601   41619       1   41580   41589  -41604   41619       1
   41580   41589   41604   41625       1   41580   41589   41607   41628       1
   41769   41757   41766   41775       1   41769   41778  -41784   41775       1
   41766   41757   41769   41778       1   41766   41775  -41784   41778       1
   41760   41766   41757   41769       1   41760   41766   41775   41784       1
   41757   41766   41775   41784       1   41757   41769  -41778   41784       1
   41751   41733   41748   41757       1   41751   41760  -41766   41757       1
   41751   41760   41766   41775       1   41748   41733   41751   41760       1
   41748   41757  -41766   41760       1   41748   41757   41766   41775       1
   41748   41757   41769   41778       1   41736   41748   41733   41751       1
   41736   41748   41757   41766       1   41736   41748   41757   41769       1
   41733   41748   41757   41766       1   41733   41748   41757   41769       1
   41733   41751  -41760   41766       1   41727   41712   41733   41748       1
   41727   41712   41733   41751       1   41715   41697   41712   41727       1
   41715   41697   41712   41733       1   41715   41736  -41748   41733       1
   41715   41736   41748   41757       1   41712   41697   41715   41736       1
   41712   41733  -41748   41736       1   41712   41733   41748   41757       1
   41712   41733   41751   41760       1   41709   41694   41706   41718       1
   41709   41727   41712   41733       1   41706   41694   41709   41727       1
   41697   41688   41691   41700       1   41697   41688   41694   41706       1
   41697   41688   41694   41709       1   41697   41712  -41727   41709       1
   41697   41712   41733   41748       1   41697   41712   41733   41751       1
   41697   41715  -41736   41748       1   41694   41688   41691   41700       1
   41694   41688   41697   41712       1   41694   41688   41697   41715       1
   41694   41706  -41718   41700       1   41694   41709  -41727   41712       1
   41691   41688   41694   41706       1   41691   41688   41694   41709       1
   41691   41688   41697   41712       1   41691   41688   41697   41715       1
   41691   41700  -41718   41706       1   41688   41691   41700   41718       1
   41688   41694  -41706   41718       1   41688   41694   41709   41727       1
   41688   41697  -41712   41727       1   41688   41697   41712   41733       1
   41688   41697   41715   41736       1   41877   41865   41874   41883       1
   41877   41886  -41892   41883       1   41874   41865   41877   41886       1
   41874   41883  -41892   41886       1   41868   41874   41865   41877       1
   41868   41874   41883   41892       1   41865   41874   41883   41892       1
   41865   41877  -41886   41892       1   41859   41841   41856   41865       1
   41859   41868  -41874   41865       1   41859   41868   41874   41883       1
   41856   41841   41859   41868       1   41856   41865  -41874   41868       1
   41856   41865   41874   41883       1   41856   41865   41877   41886       1
   41844   41856   41841   41859       1   41844   41856   41865   41874       1
   41844   41856   41865   41877       1   41841   41856   41865   41874       1
   41841   41856   41865   41877       1   41841   41859  -41868   41874       1
   41835   41820   41841   41856       1   41835   41820   41841   41859       1
   41823   41805   41820   41835       1   41823   41805   41820   41841       1
   41823   41844  -41856   41841       1   41823   41844   41856   41865       1
   41820   41805   41823   41844       1   41820   41841  -41856   41844       1
   41820   41841   41856   41865       1   41820   41841   41859   41868       1
   41817   41802   41814   41826       1   41817   41835   41820   41841       1
   41814   41802   41817   41835       1   41805   41796   41799   41808       1
   41805   41796   41802   41814       1   41805   41796   41802   41817       1
   41805   41820  -41835   41817       1   41805   41820   41841   41856       1
   41805   41820   41841   41859       1   41805   41823  -41844   41856       1
   41802   41796   41799   41808       1   41802   41796   41805   41820       1
   41802   41796   41805   41823       1   41802   41814  -41826   41808       1
   41802   41817  -41835   41820       1   41799   41796   41802   41814       1
   41799   41796   41802   41817       1   41799   41796   41805   41820       1
   41799   41796   41805   41823       1   41799   41808  -41826   41814       1
   41796   41799   41808   41826       1   41796   41802  -41814   41826       1
   41796   41802   41817   41835       1   41796   41805  -41820   41835       1
   41796   41805   41820   41841       1   41796   41805   41823   41844       1
   41985   41973   41982   41991       1   41985   41994  -42000   41991       1
   41982   41973   41985   41994       1   41982   41991  -42000   41994       1
   41976   41982   41973   41985       1   41976   41982   41991   42000       1
   41973   41982   41991   42000       1   41973   41985  -41994   42000       1
   41967   41949   41964   41973       1   41967   41976  -41982   41973       1
   41967   41976   41982   41991       1   41964   41949   41967   41976       1
   41964   41973  -41982   41976       1   41964   41973   41982   41991       1
   41964   41973   41985   41994       1   41952   41964   41949   41967       1
   41952   41964   41973   41982       1   41952   41964   41973   41985       1
   41949   41964   41973   41982       1   41949   41964   41973   41985       1
   41949   41967  -41976   41982       1   41943   41928   41949   41964       1
   41943   41928   41949   41967       1   41931   41913   41928   41943       1
   41931   41913   41928   41949       1   41931   41952  -41964   41949       1
   41931   41952   41964   41973       1   41928   41913   41931   41952       1
   41928   41949  -41964   41952       1   41928   41949   41964   41973       1
   41928   41949   41967   41976       1   41925   41910   41922   41934       1
   41925   41943   41928   41949       1   41922   41910   41925   41943       1
   41913   41904   41907   41916       1   41913   41904   41910   41922       1
   41913   41904   41910   41925       1   41913   41928  -41943   41925       1
   41913   41928   41949   41964       1   41913   41928   41949   41967       1
   41913   41931  -41952   41964       1   41910   41904   41907   41916       1
   41910   41904   41913   41928       1   41910   41904   41913   41931       1
   41910   41922  -41934   41916       1   41910   41925  -41943   41928       1
   41907   41904   41910   41922       1   41907   41904   41910   41925       1
   41907   41904   41913   41928       1   41907   41904   41913   41931       1
   41907   41916  -41934   41922       1   41904   41907   41916   41934       1
   41904   41910  -41922   41934       1   41904   41910   41925   41943       1
   41904   41913  -41928   41943       1   41904   41913   41928   41949       1
   41904   41913   41931   41952       1   42093   42081   42090   42099       1
   42093   42102  -42108   42099       1   42090   42081   42093   42102       1
   42090   42099  -42108   42102       1   42084   42090   42081   42093       1
   42084   42090   42099   42108       1   42081   42090   42099   42108       1
   42081   42093  -42102   42108       1   42075   42057   42072   42081       1
   42075   42084  -42090   42081       1   42075   42084   42090   42099       1
   42072   42057   42075   42084       1   42072   42081  -42090   42084       1
   42072   42081   42090   42099       1   42072   42081   42093   42102       1
   42060   42072   42057   42075       1   42060   42072   42081   42090       1
   42060   42072   42081   42093       1   42057   42072   42081   42090       1
   42057   42072   42081   42093       1   42057   42075  -42084   42090       1
   42051   42036   42057   42072       1   42051   42036   42057   42075       1
   42039   42021   42036   42051       1   42039   42021   42036   42057       1
   42039   42060  -42072   42057       1   42039   42060   42072   42081       1
   42036   42021   42039   42060       1   42036   42057  -42072   42060       1
   42036   42057   42072   42081       1   42036   42057   42075   42084       1
   42033   42018   42030   42042       1   42033   42051   42036   42057       1
   42030   42018   42033   42051       1   42021   42012   42015   42024       1
   42021   42012   42018   42030       1   42021   42012   42018   42033       1
   42021   42036  -42051   42033       1   42021   42036   42057   42072       1
   42021   42036   42057   42075       1   42021   42039  -42060   42072       1
   42018   42012   42015   42024       1   42018   42012   42021   42036       1
   42018   42012   42021   42039       1   42018   42030  -42042   42024       1
   42018   42033  -42051   42036       1   42015   42012   42018   42030       1
   42015   42012   42018   42033       1   42015   42012   42021   42036       1
   42015   42012   42021   42039       1   42015   42024  -42042   42030       1
   42012   42015   42024   42042       1   42012   42018  -42030   42042       1
   42012   42018   42033   42051       1   42012   42021  -42036   42051       1
   42012   42021   42036   42057       1   42012   42021   42039   42060       1
   42201   42189   42198   42207       1   42201   42210  -42216   42207       1
   42198   42189   42201   42210       1   42198   42207  -42216   42210       1
   42192   42198   42189   42201       1   42192   42198   42207   42216       1
   42189   42198   42207   42216       1   42189   42201  -42210   42216       1
   42183   42165   42180   42189       1   42183   42192  -42198   42189       1
   42183   42192   42198   42207       1   42180   42165   42183   42192       1
   42180   42189  -42198   42192       1   42180   42189   42198   42207       1
   42180   42189   42201   42210       1   42168   42180   42165   42183       1
   42168   42180   42189   42198       1   42168   42180   42189   42201       1
   42165   42180   42189   42198       1   42165   42180   42189   42201       1
   42165   42183  -42192   42198       1   42159   42144   42165   42180       1
   42159   42144   42165   42183       1   42147   42129   42144   42159       1
   42147   42129   42144   42165       1   42147   42168  -42180   42165       1
   42147   42168   42180   42189       1   42144   42129   42147   42168       1
   42144   42165  -42180   42168       1   42144   42165   42180   42189       1
   42144   42165   42183   42192       1   42141   42126   42138   42150       1
   42141   42159   42144   42165       1   42138   42126   42141   42159       1
   42129   42120   42123   42132       1   42129   42120   42126   42138       1
   42129   42120   42126   42141       1   42129   42144  -42159   42141       1
   42129   42144   42165   42180       1   42129   42144   42165   42183       1
   42129   42147  -42168   42180       1   42126   42120   42123   42132       1
   42126   42120   42129   42144       1   42126   42120   42129   42147       1
   42126   42138  -42150   42132       1   42126   42141  -42159   42144       1
   42123   42120   42126   42138       1   42123   42120   42126   42141       1
   42123   42120   42129   42144       1   42123   42120   42129   42147       1
   42123   42132  -42150   42138       1   42120   42123   42132   42150       1
   42120   42126  -42138   42150       1   42120   42126   42141   42159       1
   42120   42129  -42144   42159       1   42120   42129   42144   42165       1
   42120   42129   42147   42168       1   42309   42297   42306   42315       1
   42309   42318  -42324   42315       1   42306   42297   42309   42318       1
   42306   42315  -42324   42318       1   42300   42306   42297   42309       1
   42300   42306   42315   42324       1   42297   42306   42315   42324       1
   42297   42309  -42318   42324       1   42291   42273   42288   42297       1
   42291   42300  -42306   42297       1   42291   42300   42306   42315       1
   42288   42273   42291   42300       1   42288   42297  -42306   42300       1
   42288   42297   42306   42315       1   42288   42297   42309   42318       1
   42276   42288   42273   42291       1   42276   42288   42297   42306       1
   42276   42288   42297   42309       1   42273   42288   42297   42306       1
   42273   42288   42297   42309       1   42273   42291  -42300   42306       1
   42267   42252   42273   42288       1   42267   42252   42273   42291       1
   42255   42237   42252   42267       1   42255   42237   42252   42273       1
   42255   42276  -42288   42273       1   42255   42276   42288   42297       1
   42252   42237   42255   42276       1   42252   42273  -42288   42276       1
   42252   42273   42288   42297       1   42252   42273   42291   42300       1
   42249   42234   42246   42258       1   42249   42267   42252   42273       1
   42246   42234   42249   42267       1   42237   42228   42231   42240       1
   42237   42228   42234   42246       1   42237   42228   42234   42249       1
   42237   42252  -42267   42249       1   42237   42252   42273   42288       1
   42237   42252   42273   42291       1   42237   42255  -42276   42288       1
   42234   42228   42231   42240       1   42234   42228   42237   42252       1
   42234   42228   42237   42255       1   42234   42246  -42258   42240       1
   42234   42249  -42267   42252       1   42231   42228   42234   42246       1
   42231   42228   42234   42249       1   42231   42228   42237   42252       1
   42231   42228   42237   42255       1   42231   42240  -42258   42246       1
   42228   42231   42240   42258       1   42228   42234  -42246   42258       1
   42228   42234   42249   42267       1   42228   42237  -42252   42267       1
   42228   42237   42252   42273       1   42228   42237   42255   42276       1
   42417   42405   42414   42423       1   42417   42426  -42432   42423       1
   42414   42405   42417   42426       1   42414   42423  -42432   42426       1
   42408   42414   42405   42417       1   42408   42414   42423   42432       1
   42405   42414   42423   42432       1   42405   42417  -42426   42432       1
   42399   42381   42396   42405       1   42399   42408  -42414   42405       1
   42399   42408   42414   42423       1   42396   42381   42399   42408       1
   42396   42405  -42414   42408       1   42396   42405   42414   42423       1
   42396   42405   42417   42426       1   42384   42396   42381   42399       1
   42384   42396   42405   42414       1   42384   42396   42405   42417       1
   42381   42396   42405   42414       1   42381   42396   42405   42417       1
   42381   42399  -42408   42414       1   42375   42360   42381   42396       1
   42375   42360   42381   42399       1   42363   42345   42360   42375       1
   42363   42345   42360   42381       1   42363   42384  -42396   42381       1
   42363   42384   42396   42405       1   42360   42345   42363   42384       1
   42360   42381  -42396   42384       1   42360   42381   42396   42405       1
   42360   42381   42399   42408       1   42357   42342   42354   42366       1
   42357   42375   42360   42381       1   42354   42342   42357   42375       1
   42345   42336   42339   42348       1   42345   42336   42342   42354       1
   42345   42336   42342   42357       1   42345   42360  -42375   42357       1
   42345   42360   42381   42396       1   42345   42360   42381   42399       1
   42345   42363  -42384   42396       1   42342   42336   42339   42348       1
   42342   42336   42345   42360       1   42342   42336   42345   42363       1
   42342   42354  -42366   42348       1   42342   42357  -42375   42360       1
   42339   42336   42342   42354       1   42339   42336   42342   42357       1
   42339   42336   42345   42360       1   42339   42336   42345   42363       1
   42339   42348  -42366   42354       1   42336   42339   42348   42366       1
   42336   42342  -42354   42366       1   42336   42342   42357   42375       1
   42336   42345  -42360   42375       1   42336   42345   42360   42381       1
   42336   42345   42363   42384       1   42525   42513   42522   42531       1
   42525   42534  -42540   42531       1   42522   42513   42525   42534       1
   42522   42531  -42540   42534       1   42516   42522   42513   42525       1
   42516   42522   42531   42540       1   42513   42522   42531   42540       1
   42513   42525  -42534   42540       1   42507   42489   42504   42513       1
   42507   42516  -42522   42513       1   42507   42516   42522   42531       1
   42504   42489   42507   42516       1   42504   42513  -42522   42516       1
   42504   42513   42522   42531       1   42504   42513   42525   42534       1
   42492   42504   42489   42507       1   42492   42504   42513   42522       1
   42492   42504   42513   42525       1   42489   42504   42513   42522       1
   42489   42504   42513   42525       1   42489   42507  -42516   42522       1
   42483   42468   42489   42504       1   42483   42468   42489   42507       1
   42471   42453   42468   42483       1   42471   42453   42468   42489       1
   42471   42492  -42504   42489       1   42471   42492   42504   42513       1
   42468   42453   42471   42492       1   42468   42489  -42504   42492       1
   42468   42489   42504   42513       1   42468   42489   42507   42516       1
   42465   42450   42462   42474       1   42465   42483   42468   42489       1
   42462   42450   42465   42483       1   42453   42444   42447   42456       1
   42453   42444   42450   42462       1   42453   42444   42450   42465       1
   42453   42468  -42483   42465       1   42453   42468   42489   42504       1
   42453   42468   42489   42507       1   42453   42471  -42492   42504       1
   42450   42444   42447   42456       1   42450   42444   42453   42468       1
   42450   42444   42453   42471       1   42450   42462  -42474   42456       1
   42450   42465  -42483   42468       1   42447   42444   42450   42462       1
   42447   42444   42450   42465       1   42447   42444   42453   42468       1
   42447   42444   42453   42471       1   42447   42456  -42474   42462       1
   42444   42447   42456   42474       1   42444   42450  -42462   42474       1
   42444   42450   42465   42483       1   42444   42453  -42468   42483       1
   42444   42453   42468   42489       1   42444   42453   42471   42492       1
   42633   42621   42630   42639       1   42633   42642  -42648   42639       1
   42630   42621   42633   42642       1   42630   42639  -42648   42642       1
   42624   42630   42621   42633       1   42624   42630   42639   42648       1
   42621   42630   42639   42648       1   42621   42633  -42642   42648       1
   42615   42597   42612   42621       1   42615   42624  -42630   42621       1
   42615   42624   42630   42639       1   42612   42597   42615   42624       1
   42612   42621  -42630   42624       1   42612   42621   42630   42639       1
   42612   42621   42633   42642       1   42600   42612   42597   42615       1
   42600   42612   42621   42630       1   42600   42612   42621   42633       1
   42597   42612   42621   42630       1   42597   42612   42621   42633       1
   42597   42615  -42624   42630       1   42591   42576   42597   42612       1
   42591   42576   42597   42615       1   42579   42561   42576   42591       1
   42579   42561   42576   42597       1   42579   42600  -42612   42597       1
   42579   42600   42612   42621       1   42576   42561   42579   42600       1
   42576   42597  -42612   42600       1   42576   42597   42612   42621       1
   42576   42597   42615   42624       1   42573   42558   42570   42582       1
   42573   42591   42576   42597       1   42570   42558   42573   42591       1
   42561   42552   42555   42564       1   42561   42552   42558   42570       1
   42561   42552   42558   42573       1   42561   42576  -42591   42573       1
   42561   42576   42597   42612       1   42561   42576   42597   42615       1
   42561   42579  -42600   42612       1   42558   42552   42555   42564       1
   42558   42552   42561   42576       1   42558   42552   42561   42579       1
   42558   42570  -42582   42564       1   42558   42573  -42591   42576       1
   42555   42552   42558   42570       1   42555   42552   42558   42573       1
   42555   42552   42561   42576       1   42555   42552   42561   42579       1
   42555   42564  -42582   42570       1   42552   42555   42564   42582       1
   42552   42558  -42570   42582       1   42552   42558   42573   42591       1
   42552   42561  -42576   42591       1   42552   42561   42576   42597       1
   42552   42561   42579   42600       1   42741   42729   42738   42747       1
   42741   42750  -42756   42747       1   42738   42729   42741   42750       1
   42738   42747  -42756   42750       1   42732   42738   42729   42741       1
   42732   42738   42747   42756       1   42729   42738   42747   42756       1
   42729   42741  -42750   42756       1   42723   42705   42720   42729       1
   42723   42732  -42738   42729       1   42723   42732   42738   42747       1
   42720   42705   42723   42732       1   42720   42729  -42738   42732       1
   42720   42729   42738   42747       1   42720   42729   42741   42750       1
   42708   42720   42705   42723       1   42708   42720   42729   42738       1
   42708   42720   42729   42741       1   42705   42720   42729   42738       1
   42705   42720   42729   42741       1   42705   42723  -42732   42738       1
   42699   42684   42705   42720       1   42699   42684   42705   42723       1
   42687   42669   42684   42699       1   42687   42669   42684   42705       1
   42687   42708  -42720   42705       1   42687   42708   42720   42729       1
   42684   42669   42687   42708       1   42684   42705  -42720   42708       1
   42684   42705   42720   42729       1   42684   42705   42723   42732       1
   42681   42666   42678   42690       1   42681   42699   42684   42705       1
   42678   42666   42681   42699       1   42669   42660   42663   42672       1
   42669   42660   42666   42678       1   42669   42660   42666   42681       1
   42669   42684  -42699   42681       1   42669   42684   42705   42720       1
   42669   42684   42705   42723       1   42669   42687  -42708   42720       1
   42666   42660   42663   42672       1   42666   42660   42669   42684       1
   42666   42660   42669   42687       1   42666   42678  -42690   42672       1
   42666   42681  -42699   42684       1   42663   42660   42666   42678       1
   42663   42660   42666   42681       1   42663   42660   42669   42684       1
   42663   42660   42669   42687       1   42663   42672  -42690   42678       1
   42660   42663   42672   42690       1   42660   42666  -42678   42690       1
   42660   42666   42681   42699       1   42660   42669  -42684   42699       1
   42660   42669   42684   42705       1   42660   42669   42687   42708       1
   42849   42837   42846   42855       1   42849   42858  -42864   42855       1
   42846   42837   42849   42858       1   42846   42855  -42864   42858       1
   42840   42846   42837   42849       1   42840   42846   42855   42864       1
   42837   42846   42855   42864       1   42837   42849  -42858   42864       1
   42831   42813   42828   42837       1   42831   42840  -42846   42837       1
   42831   42840   42846   42855       1   42828   42813   42831   42840       1
   42828   42837  -42846   42840       1   42828   42837   42846   42855       1
   42828   42837   42849   42858       1   42816   42828   42813   42831       1
   42816   42828   42837   42846       1   42816   42828   42837   42849       1
   42813   42828   42837   42846       1   42813   42828   42837   42849       1
   42813   42831  -42840   42846       1   42807   42792   42813   42828       1
   42807   42792   42813   42831       1   42795   42777   42792   42807       1
   42795   42777   42792   42813       1   42795   42816  -42828   42813       1
   42795   42816   42828   42837       1   42792   42777   42795   42816       1
   42792   42813  -42828   42816       1   42792   42813   42828   42837       1
   42792   42813   42831   42840       1   42789   42774   42786   42798       1
   42789   42807   42792   42813       1   42786   42774   42789   42807       1
   42777   42768   42771   42780       1   42777   42768   42774   42786       1
   42777   42768   42774   42789       1   42777   42792  -42807   42789       1
   42777   42792   42813   42828       1   42777   42792   42813   42831       1
   42777   42795  -42816   42828       1   42774   42768   42771   42780       1
   42774   42768   42777   42792       1   42774   42768   42777   42795       1
   42774   42786  -42798   42780       1   42774   42789  -42807   42792       1
   42771   42768   42774   42786       1   42771   42768   42774   42789       1
   42771   42768   42777   42792       1   42771   42768   42777   42795       1
   42771   42780  -42798   42786       1   42768   42771   42780   42798       1
   42768   42774  -42786   42798       1   42768   42774   42789   42807       1
   42768   42777  -42792   42807       1   42768   42777   42792   42813       1
   42768   42777   42795   42816       1   42957   42945   42954   42963       1
   42957   42966  -42972   42963       1   42954   42945   42957   42966       1
   42954   42963  -42972   42966       1   42948   42954   42945   42957       1
   42948   42954   42963   42972       1   42945   42954   42963   42972       1
   42945   42957  -42966   42972       1   42939   42921   42936   42945       1
   42939   42948  -42954   42945       1   42939   42948   42954   42963       1
   42936   42921   42939   42948       1   42936   42945  -42954   42948       1
   42936   42945   42954   42963       1   42936   42945   42957   42966       1
   42924   42936   42921   42939       1   42924   42936   42945   42954       1
   42924   42936   42945   42957       1   42921   42936   42945   42954       1
   42921   42936   42945   42957       1   42921   42939  -42948   42954       1
   42915   42900   42921   42936       1   42915   42900   42921   42939       1
   42903   42885   42900   42915       1   42903   42885   42900   42921       1
   42903   42924  -42936   42921       1   42903   42924   42936   42945       1
   42900   42885   42903   42924       1   42900   42921  -42936   42924       1
   42900   42921   42936   42945       1   42900   42921   42939   42948       1
   42897   42882   42894   42906       1   42897   42915   42900   42921       1
   42894   42882   42897   42915       1   42885   42876   42879   42888       1
   42885   42876   42882   42894       1   42885   42876   42882   42897       1
   42885   42900  -42915   42897       1   42885   42900   42921   42936       1
   42885   42900   42921   42939       1   42885   42903  -42924   42936       1
   42882   42876   42879   42888       1   42882   42876   42885   42900       1
   42882   42876   42885   42903       1   42882   42894  -42906   42888       1
   42882   42897  -42915   42900       1   42879   42876   42882   42894       1
   42879   42876   42882   42897       1   42879   42876   42885   42900       1
   42879   42876   42885   42903       1   42879   42888  -42906   42894       1
   42876   42879   42888   42906       1   42876   42882  -42894   42906       1
   42876   42882   42897   42915       1   42876   42885  -42900   42915       1
   42876   42885   42900   42921       1   42876   42885   42903   42924       1
   43065   43053   43062   43071       1   43065   43074  -43080   43071       1
   43062   43053   43065   43074       1   43062   43071  -43080   43074       1
   43056   43062   43053   43065       1   43056   43062   43071   43080       1
   43053   43062   43071   43080       1   43053   43065  -43074   43080       1
   43047   43029   43044   43053       1   43047   43056  -43062   43053       1
   43047   43056   43062   43071       1   43044   43029   43047   43056       1
   43044   43053  -43062   43056       1   43044   43053   43062   43071       1
   43044   43053   43065   43074       1   43032   43044   43029   43047       1
   43032   43044   43053   43062       1   43032   43044   43053   43065       1
   43029   43044   43053   43062       1   43029   43044   43053   43065       1
   43029   43047  -43056   43062       1   43023   43008   43029   43044       1
   43023   43008   43029   43047       1   43011   42993   43008   43023       1
   43011   42993   43008   43029       1   43011   43032  -43044   43029       1
   43011   43032   43044   43053       1   43008   42993   43011   43032       1
   43008   43029  -43044   43032       1   43008   43029   43044   43053       1
   43008   43029   43047   43056       1   43005   42990   43002   43014       1
   43005   43023   43008   43029       1   43002   42990   43005   43023       1
   42993   42984   42987   42996       1   42993   42984   42990   43002       1
   42993   42984   42990   43005       1   42993   43008  -43023   43005       1
   42993   43008   43029   43044       1   42993   43008   43029   43047       1
   42993   43011  -43032   43044       1   42990   42984   42987   42996       1
   42990   42984   42993   43008       1   42990   42984   42993   43011       1
   42990   43002  -43014   42996       1   42990   43005  -43023   43008       1
   42987   42984   42990   43002       1   42987   42984   42990   43005       1
   42987   42984   42993   43008       1   42987   42984   42993   43011       1
   42987   42996  -43014   43002       1   42984   42987   42996   43014       1
   42984   42990  -43002   43014       1   42984   42990   43005   43023       1
   42984   42993  -43008   43023       1   42984   42993   43008   43029       1
   42984   42993   43011   43032       1   43173   43161   43170   43179       1
   43173   43182  -43188   43179       1   43170   43161   43173   43182       1
   43170   43179  -43188   43182       1   43164   43170   43161   43173       1
   43164   43170   43179   43188       1   43161   43170   43179   43188       1
   43161   43173  -43182   43188       1   43155   43137   43152   43161       1
   43155   43164  -43170   43161       1   43155   43164   43170   43179       1
   43152   43137   43155   43164       1   43152   43161  -43170   43164       1
   43152   43161   43170   43179       1   43152   43161   43173   43182       1
   43140   43152   43137   43155       1   43140   43152   43161   43170       1
   43140   43152   43161   43173       1   43137   43152   43161   43170       1
   43137   43152   43161   43173       1   43137   43155  -43164   43170       1
   43131   43116   43137   43152       1   43131   43116   43137   43155       1
   43119   43101   43116   43131       1   43119   43101   43116   43137       1
   43119   43140  -43152   43137       1   43119   43140   43152   43161       1
   43116   43101   43119   43140       1   43116   43137  -43152   43140       1
   43116   43137   43152   43161       1   43116   43137   43155   43164       1
   43113   43098   43110   43122       1   43113   43131   43116   43137       1
   43110   43098   43113   43131       1   43101   43092   43095   43104       1
   43101   43092   43098   43110       1   43101   43092   43098   43113       1
   43101   43116  -43131   43113       1   43101   43116   43137   43152       1
   43101   43116   43137   43155       1   43101   43119  -43140   43152       1
   43098   43092   43095   43104       1   43098   43092   43101   43116       1
   43098   43092   43101   43119       1   43098   43110  -43122   43104       1
   43098   43113  -43131   43116       1   43095   43092   43098   43110       1
   43095   43092   43098   43113       1   43095   43092   43101   43116       1
   43095   43092   43101   43119       1   43095   43104  -43122   43110       1
   43092   43095   43104   43122       1   43092   43098  -43110   43122       1
   43092   43098   43113   43131       1   43092   43101  -43116   43131       1
   43092   43101   43116   43137       1   43092   43101   43119   43140       1
   43281   43269   43278   43287       1   43281   43290  -43296   43287       1
   43278   43269   43281   43290       1   43278   43287  -43296   43290       1
   43272   43278   43269   43281       1   43272   43278   43287   43296       1
   43269   43278   43287   43296       1   43269   43281  -43290   43296       1
   43263   43245   43260   43269       1   43263   43272  -43278   43269       1
   43263   43272   43278   43287       1   43260   43245   43263   43272       1
   43260   43269  -43278   43272       1   43260   43269   43278   43287       1
   43260   43269   43281   43290       1   43248   43260   43245   43263       1
   43248   43260   43269   43278       1   43248   43260   43269   43281       1
   43245   43260   43269   43278       1   43245   43260   43269   43281       1
   43245   43263  -43272   43278       1   43239   43224   43245   43260       1
   43239   43224   43245   43263       1   43227   43209   43224   43239       1
   43227   43209   43224   43245       1   43227   43248  -43260   43245       1
   43227   43248   43260   43269       1   43224   43209   43227   43248       1
   43224   43245  -43260   43248       1   43224   43245   43260   43269       1
   43224   43245   43263   43272       1   43221   43206   43218   43230       1
   43221   43239   43224   43245       1   43218   43206   43221   43239       1
   43209   43200   43203   43212       1   43209   43200   43206   43218       1
   43209   43200   43206   43221       1   43209   43224  -43239   43221       1
   43209   43224   43245   43260       1   43209   43224   43245   43263       1
   43209   43227  -43248   43260       1   43206   43200   43203   43212       1
   43206   43200   43209   43224       1   43206   43200   43209   43227       1
   43206   43218  -43230   43212       1   43206   43221  -43239   43224       1
   43203   43200   43206   43218       1   43203   43200   43206   43221       1
   43203   43200   43209   43224       1   43203   43200   43209   43227       1
   43203   43212  -43230   43218       1   43200   43203   43212   43230       1
   43200   43206  -43218   43230       1   43200   43206   43221   43239       1
   43200   43209  -43224   43239       1   43200   43209   43224   43245       1
   43200   43209   43227   43248       1   43389   43377   43386   43395       1
   43389   43398  -43404   43395       1   43386   43377   43389   43398       1
   43386   43395  -43404   43398       1   43380   43386   43377   43389       1
   43380   43386   43395   43404       1   43377   43386   43395   43404       1
   43377   43389  -43398   43404       1   43371   43353   43368   43377       1
   43371   43380  -43386   43377       1   43371   43380   43386   43395       1
   43368   43353   43371   43380       1   43368   43377  -43386   43380       1
   43368   43377   43386   43395       1   43368   43377   43389   43398       1
   43356   43368   43353   43371       1   43356   43368   43377   43386       1
   43356   43368   43377   43389       1   43353   43368   43377   43386       1
   43353   43368   43377   43389       1   43353   43371  -43380   43386       1
   43347   43332   43353   43368       1   43347   43332   43353   43371       1
   43335   43317   43332   43347       1   43335   43317   43332   43353       1
   43335   43356  -43368   43353       1   43335   43356   43368   43377       1
   43332   43317   43335   43356       1   43332   43353  -43368   43356       1
   43332   43353   43368   43377       1   43332   43353   43371   43380       1
   43329   43314   43326   43338       1   43329   43347   43332   43353       1
   43326   43314   43329   43347       1   43317   43308   43311   43320       1
   43317   43308   43314   43326       1   43317   43308   43314   43329       1
   43317   43332  -43347   43329       1   43317   43332   43353   43368       1
   43317   43332   43353   43371       1   43317   43335  -43356   43368       1
   43314   43308   43311   43320       1   43314   43308   43317   43332       1
   43314   43308   43317   43335       1   43314   43326  -43338   43320       1
   43314   43329  -43347   43332       1   43311   43308   43314   43326       1
   43311   43308   43314   43329       1   43311   43308   43317   43332       1
   43311   43308   43317   43335       1   43311   43320  -43338   43326       1
   43308   43311   43320   43338       1   43308   43314  -43326   43338       1
   43308   43314   43329   43347       1   43308   43317  -43332   43347       1
   43308   43317   43332   43353       1   43308   43317   43335   43356       1
   43497   43485   43494   43503       1   43497   43506  -43512   43503       1
   43494   43485   43497   43506       1   43494   43503  -43512   43506       1
   43488   43494   43485   43497       1   43488   43494   43503   43512       1
   43485   43494   43503   43512       1   43485   43497  -43506   43512       1
   43479   43461   43476   43485       1   43479   43488  -43494   43485       1
   43479   43488   43494   43503       1   43476   43461   43479   43488       1
   43476   43485  -43494   43488       1   43476   43485   43494   43503       1
   43476   43485   43497   43506       1   43464   43476   43461   43479       1
   43464   43476   43485   43494       1   43464   43476   43485   43497       1
   43461   43476   43485   43494       1   43461   43476   43485   43497       1
   43461   43479  -43488   43494       1   43455   43440   43461   43476       1
   43455   43440   43461   43479       1   43443   43425   43440   43455       1
   43443   43425   43440   43461       1   43443   43464  -43476   43461       1
   43443   43464   43476   43485       1   43440   43425   43443   43464       1
   43440   43461  -43476   43464       1   43440   43461   43476   43485       1
   43440   43461   43479   43488       1   43437   43422   43434   43446       1
   43437   43455   43440   43461       1   43434   43422   43437   43455       1
   43425   43416   43419   43428       1   43425   43416   43422   43434       1
   43425   43416   43422   43437       1   43425   43440  -43455   43437       1
   43425   43440   43461   43476       1   43425   43440   43461   43479       1
   43425   43443  -43464   43476       1   43422   43416   43419   43428       1
   43422   43416   43425   43440       1   43422   43416   43425   43443       1
   43422   43434  -43446   43428       1   43422   43437  -43455   43440       1
   43419   43416   43422   43434       1   43419   43416   43422   43437       1
   43419   43416   43425   43440       1   43419   43416   43425   43443       1
   43419   43428  -43446   43434       1   43416   43419   43428   43446       1
   43416   43422  -43434   43446       1   43416   43422   43437   43455       1
   43416   43425  -43440   43455       1   43416   43425   43440   43461       1
   43416   43425   43443   43464       1   43605   43593   43602   43611       1
   43605   43614  -43620   43611       1   43602   43593   43605   43614       1
   43602   43611  -43620   43614       1   43596   43602   43593   43605       1
   43596   43602   43611   43620       1   43593   43602   43611   43620       1
   43593   43605  -43614   43620       1   43587   43569   43584   43593       1
   43587   43596  -43602   43593       1   43587   43596   43602   43611       1
   43584   43569   43587   43596       1   43584   43593  -43602   43596       1
   43584   43593   43602   43611       1   43584   43593   43605   43614       1
   43572   43584   43569   43587       1   43572   43584   43593   43602       1
   43572   43584   43593   43605       1   43569   43584   43593   43602       1
   43569   43584   43593   43605       1   43569   43587  -43596   43602       1
   43563   43548   43569   43584       1   43563   43548   43569   43587       1
   43551   43533   43548   43563       1   43551   43533   43548   43569       1
   43551   43572  -43584   43569       1   43551   43572   43584   43593       1
   43548   43533   43551   43572       1   43548   43569  -43584   43572       1
   43548   43569   43584   43593       1   43548   43569   43587   43596       1
   43545   43530   43542   43554       1   43545   43563   43548   43569       1
   43542   43530   43545   43563       1   43533   43524   43527   43536       1
   43533   43524   43530   43542       1   43533   43524   43530   43545       1
   43533   43548  -43563   43545       1   43533   43548   43569   43584       1
   43533   43548   43569   43587       1   43533   43551  -43572   43584       1
   43530   43524   43527   43536       1   43530   43524   43533   43548       1
   43530   43524   43533   43551       1   43530   43542  -43554   43536       1
   43530   43545  -43563   43548       1   43527   43524   43530   43542       1
   43527   43524   43530   43545       1   43527   43524   43533   43548       1
   43527   43524   43533   43551       1   43527   43536  -43554   43542       1
   43524   43527   43536   43554       1   43524   43530  -43542   43554       1
   43524   43530   43545   43563       1   43524   43533  -43548   43563       1
   43524   43533   43548   43569       1   43524   43533   43551   43572       1
   43713   43701   43710   43719       1   43713   43722  -43728   43719       1
   43710   43701   43713   43722       1   43710   43719  -43728   43722       1
   43704   43710   43701   43713       1   43704   43710   43719   43728       1
   43701   43710   43719   43728       1   43701   43713  -43722   43728       1
   43695   43677   43692   43701       1   43695   43704  -43710   43701       1
   43695   43704   43710   43719       1   43692   43677   43695   43704       1
   43692   43701  -43710   43704       1   43692   43701   43710   43719       1
   43692   43701   43713   43722       1   43680   43692   43677   43695       1
   43680   43692   43701   43710       1   43680   43692   43701   43713       1
   43677   43692   43701   43710       1   43677   43692   43701   43713       1
   43677   43695  -43704   43710       1   43671   43656   43677   43692       1
   43671   43656   43677   43695       1   43659   43641   43656   43671       1
   43659   43641   43656   43677       1   43659   43680  -43692   43677       1
   43659   43680   43692   43701       1   43656   43641   43659   43680       1
   43656   43677  -43692   43680       1   43656   43677   43692   43701       1
   43656   43677   43695   43704       1   43653   43638   43650   43662       1
   43653   43671   43656   43677       1   43650   43638   43653   43671       1
   43641   43632   43635   43644       1   43641   43632   43638   43650       1
   43641   43632   43638   43653       1   43641   43656  -43671   43653       1
   43641   43656   43677   43692       1   43641   43656   43677   43695       1
   43641   43659  -43680   43692       1   43638   43632   43635   43644       1
   43638   43632   43641   43656       1   43638   43632   43641   43659       1
   43638   43650  -43662   43644       1   43638   43653  -43671   43656       1
   43635   43632   43638   43650       1   43635   43632   43638   43653       1
   43635   43632   43641   43656       1   43635   43632   43641   43659       1
   43635   43644  -43662   43650       1   43632   43635   43644   43662       1
   43632   43638  -43650   43662       1   43632   43638   43653   43671       1
   43632   43641  -43656   43671       1   43632   43641   43656   43677       1
   43632   43641   43659   43680       1   43821   43809   43818   43827       1
   43821   43830  -43836   43827       1   43818   43809   43821   43830       1
   43818   43827  -43836   43830       1   43812   43818   43809   43821       1
   43812   43818   43827   43836       1   43809   43818   43827   43836       1
   43809   43821  -43830   43836       1   43803   43785   43800   43809       1
   43803   43812  -43818   43809       1   43803   43812   43818   43827       1
   43800   43785   43803   43812       1   43800   43809  -43818   43812       1
   43800   43809   43818   43827       1   43800   43809   43821   43830       1
   43788   43800   43785   43803       1   43788   43800   43809   43818       1
   43788   43800   43809   43821       1   43785   43800   43809   43818       1
   43785   43800   43809   43821       1   43785   43803  -43812   43818       1
   43779   43764   43785   43800       1   43779   43764   43785   43803       1
   43767   43749   43764   43779       1   43767   43749   43764   43785       1
   43767   43788  -43800   43785       1   43767   43788   43800   43809       1
   43764   43749   43767   43788       1   43764   43785  -43800   43788       1
   43764   43785   43800   43809       1   43764   43785   43803   43812       1
   43761   43746   43758   43770       1   43761   43779   43764   43785       1
   43758   43746   43761   43779       1   43749   43740   43743   43752       1
   43749   43740   43746   43758       1   43749   43740   43746   43761       1
   43749   43764  -43779   43761       1   43749   43764   43785   43800       1
   43749   43764   43785   43803       1   43749   43767  -43788   43800       1
   43746   43740   43743   43752       1   43746   43740   43749   43764       1
   43746   43740   43749   43767       1   43746   43758  -43770   43752       1
   43746   43761  -43779   43764       1   43743   43740   43746   43758       1
   43743   43740   43746   43761       1   43743   43740   43749   43764       1
   43743   43740   43749   43767       1   43743   43752  -43770   43758       1
   43740   43743   43752   43770       1   43740   43746  -43758   43770       1
   43740   43746   43761   43779       1   43740   43749  -43764   43779       1
   43740   43749   43764   43785       1   43740   43749   43767   43788       1
   43929   43917   43926   43935       1   43929   43938  -43944   43935       1
   43926   43917   43929   43938       1   43926   43935  -43944   43938       1
   43920   43926   43917   43929       1   43920   43926   43935   43944       1
   43917   43926   43935   43944       1   43917   43929  -43938   43944       1
   43911   43893   43908   43917       1   43911   43920  -43926   43917       1
   43911   43920   43926   43935       1   43908   43893   43911   43920       1
   43908   43917  -43926   43920       1   43908   43917   43926   43935       1
   43908   43917   43929   43938       1   43896   43908   43893   43911       1
   43896   43908   43917   43926       1   43896   43908   43917   43929       1
   43893   43908   43917   43926       1   43893   43908   43917   43929       1
   43893   43911  -43920   43926       1   43887   43872   43893   43908       1
   43887   43872   43893   43911       1   43875   43857   43872   43887       1
   43875   43857   43872   43893       1   43875   43896  -43908   43893       1
   43875   43896   43908   43917       1   43872   43857   43875   43896       1
   43872   43893  -43908   43896       1   43872   43893   43908   43917       1
   43872   43893   43911   43920       1   43869   43854   43866   43878       1
   43869   43887   43872   43893       1   43866   43854   43869   43887       1
   43857   43848   43851   43860       1   43857   43848   43854   43866       1
   43857   43848   43854   43869       1   43857   43872  -43887   43869       1
   43857   43872   43893   43908       1   43857   43872   43893   43911       1
   43857   43875  -43896   43908       1   43854   43848   43851   43860       1
   43854   43848   43857   43872       1   43854   43848   43857   43875       1
   43854   43866  -43878   43860       1   43854   43869  -43887   43872       1
   43851   43848   43854   43866       1   43851   43848   43854   43869       1
   43851   43848   43857   43872       1   43851   43848   43857   43875       1
   43851   43860  -43878   43866       1   43848   43851   43860   43878       1
   43848   43854  -43866   43878       1   43848   43854   43869   43887       1
   43848   43857  -43872   43887       1   43848   43857   43872   43893       1
   43848   43857   43875   43896       1   44037   44025   44034   44043       1
   44037   44046  -44052   44043       1   44034   44025   44037   44046       1
   44034   44043  -44052   44046       1   44028   44034   44025   44037       1
   44028   44034   44043   44052       1   44025   44034   44043   44052       1
   44025   44037  -44046   44052       1   44019   44001   44016   44025       1
   44019   44028  -44034   44025       1   44019   44028   44034   44043       1
   44016   44001   44019   44028       1   44016   44025  -44034   44028       1
   44016   44025   44034   44043       1   44016   44025   44037   44046       1
   44004   44016   44001   44019       1   44004   44016   44025   44034       1
   44004   44016   44025   44037       1   44001   44016   44025   44034       1
   44001   44016   44025   44037       1   44001   44019  -44028   44034       1
   43995   43980   44001   44016       1   43995   43980   44001   44019       1
   43983   43965   43980   43995       1   43983   43965   43980   44001       1
   43983   44004  -44016   44001       1   43983   44004   44016   44025       1
   43980   43965   43983   44004       1   43980   44001  -44016   44004       1
   43980   44001   44016   44025       1   43980   44001   44019   44028       1
   43977   43962   43974   43986       1   43977   43995   43980   44001       1
   43974   43962   43977   43995       1   43965   43956   43959   43968       1
   43965   43956   43962   43974       1   43965   43956   43962   43977       1
   43965   43980  -43995   43977       1   43965   43980   44001   44016       1
   43965   43980   44001   44019       1   43965   43983  -44004   44016       1
   43962   43956   43959   43968       1   43962   43956   43965   43980       1
   43962   43956   43965   43983       1   43962   43974  -43986   43968       1
   43962   43977  -43995   43980       1   43959   43956   43962   43974       1
   43959   43956   43962   43977       1   43959   43956   43965   43980       1
   43959   43956   43965   43983       1   43959   43968  -43986   43974       1
   43956   43959   43968   43986       1   43956   43962  -43974   43986       1
   43956   43962   43977   43995       1   43956   43965  -43980   43995       1
   43956   43965   43980   44001       1   43956   43965   43983   44004       1
   44145   44133   44142   44151       1   44145   44154  -44160   44151       1
   44142   44133   44145   44154       1   44142   44151  -44160   44154       1
   44136   44142   44133   44145       1   44136   44142   44151   44160       1
   44133   44142   44151   44160       1   44133   44145  -44154   44160       1
   44127   44109   44124   44133       1   44127   44136  -44142   44133       1
   44127   44136   44142   44151       1   44124   44109   44127   44136       1
   44124   44133  -44142   44136       1   44124   44133   44142   44151       1
   44124   44133   44145   44154       1   44112   44124   44109   44127       1
   44112   44124   44133   44142       1   44112   44124   44133   44145       1
   44109   44124   44133   44142       1   44109   44124   44133   44145       1
   44109   44127  -44136   44142       1   44103   44088   44109   44124       1
   44103   44088   44109   44127       1   44091   44073   44088   44103       1
   44091   44073   44088   44109       1   44091   44112  -44124   44109       1
   44091   44112   44124   44133       1   44088   44073   44091   44112       1
   44088   44109  -44124   44112       1   44088   44109   44124   44133       1
   44088   44109   44127   44136       1   44085   44070   44082   44094       1
   44085   44103   44088   44109       1   44082   44070   44085   44103       1
   44073   44064   44067   44076       1   44073   44064   44070   44082       1
   44073   44064   44070   44085       1   44073   44088  -44103   44085       1
   44073   44088   44109   44124       1   44073   44088   44109   44127       1
   44073   44091  -44112   44124       1   44070   44064   44067   44076       1
   44070   44064   44073   44088       1   44070   44064   44073   44091       1
   44070   44082  -44094   44076       1   44070   44085  -44103   44088       1
   44067   44064   44070   44082       1   44067   44064   44070   44085       1
   44067   44064   44073   44088       1   44067   44064   44073   44091       1
   44067   44076  -44094   44082       1   44064   44067   44076   44094       1
   44064   44070  -44082   44094       1   44064   44070   44085   44103       1
   44064   44073  -44088   44103       1   44064   44073   44088   44109       1
   44064   44073   44091   44112       1   44253   44241   44250   44259       1
   44253   44262  -44268   44259       1   44250   44241   44253   44262       1
   44250   44259  -44268   44262       1   44244   44250   44241   44253       1
   44244   44250   44259   44268       1   44241   44250   44259   44268       1
   44241   44253  -44262   44268       1   44235   44217   44232   44241       1
   44235   44244  -44250   44241       1   44235   44244   44250   44259       1
   44232   44217   44235   44244       1   44232   44241  -44250   44244       1
   44232   44241   44250   44259       1   44232   44241   44253   44262       1
   44220   44232   44217   44235       1   44220   44232   44241   44250       1
   44220   44232   44241   44253       1   44217   44232   44241   44250       1
   44217   44232   44241   44253       1   44217   44235  -44244   44250       1
   44211   44196   44217   44232       1   44211   44196   44217   44235       1
   44199   44181   44196   44211       1   44199   44181   44196   44217       1
   44199   44220  -44232   44217       1   44199   44220   44232   44241       1
   44196   44181   44199   44220       1   44196   44217  -44232   44220       1
   44196   44217   44232   44241       1   44196   44217   44235   44244       1
   44193   44178   44190   44202       1   44193   44211   44196   44217       1
   44190   44178   44193   44211       1   44181   44172   44175   44184       1
   44181   44172   44178   44190       1   44181   44172   44178   44193       1
   44181   44196  -44211   44193       1   44181   44196   44217   44232       1
   44181   44196   44217   44235       1   44181   44199  -44220   44232       1
   44178   44172   44175   44184       1   44178   44172   44181   44196       1
   44178   44172   44181   44199       1   44178   44190  -44202   44184       1
   44178   44193  -44211   44196       1   44175   44172   44178   44190       1
   44175   44172   44178   44193       1   44175   44172   44181   44196       1
   44175   44172   44181   44199       1   44175   44184  -44202   44190       1
   44172   44175   44184   44202       1   44172   44178  -44190   44202       1
   44172   44178   44193   44211       1   44172   44181  -44196   44211       1
   44172   44181   44196   44217       1   44172   44181   44199   44220       1
   44361   44349   44358   44367       1   44361   44370  -44376   44367       1
   44358   44349   44361   44370       1   44358   44367  -44376   44370       1
   44352   44358   44349   44361       1   44352   44358   44367   44376       1
   44349   44358   44367   44376       1   44349   44361  -44370   44376       1
   44343   44325   44340   44349       1   44343   44352  -44358   44349       1
   44343   44352   44358   44367       1   44340   44325   44343   44352       1
   44340   44349  -44358   44352       1   44340   44349   44358   44367       1
   44340   44349   44361   44370       1   44328   44340   44325   44343       1
   44328   44340   44349   44358       1   44328   44340   44349   44361       1
   44325   44340   44349   44358       1   44325   44340   44349   44361       1
   44325   44343  -44352   44358       1   44319   44304   44325   44340       1
   44319   44304   44325   44343       1   44307   44289   44304   44319       1
   44307   44289   44304   44325       1   44307   44328  -44340   44325       1
   44307   44328   44340   44349       1   44304   44289   44307   44328       1
   44304   44325  -44340   44328       1   44304   44325   44340   44349       1
   44304   44325   44343   44352       1   44301   44286   44298   44310       1
   44301   44319   44304   44325       1   44298   44286   44301   44319       1
   44289   44280   44283   44292       1   44289   44280   44286   44298       1
   44289   44280   44286   44301       1   44289   44304  -44319   44301       1
   44289   44304   44325   44340       1   44289   44304   44325   44343       1
   44289   44307  -44328   44340       1   44286   44280   44283   44292       1
   44286   44280   44289   44304       1   44286   44280   44289   44307       1
   44286   44298  -44310   44292       1   44286   44301  -44319   44304       1
   44283   44280   44286   44298       1   44283   44280   44286   44301       1
   44283   44280   44289   44304       1   44283   44280   44289   44307       1
   44283   44292  -44310   44298       1   44280   44283   44292   44310       1
   44280   44286  -44298   44310       1   44280   44286   44301   44319       1
   44280   44289  -44304   44319       1   44280   44289   44304   44325       1
   44280   44289   44307   44328       1   44469   44457   44466   44475       1
   44469   44478  -44484   44475       1   44466   44457   44469   44478       1
   44466   44475  -44484   44478       1   44460   44466   44457   44469       1
   44460   44466   44475   44484       1   44457   44466   44475   44484       1
   44457   44469  -44478   44484       1   44451   44433   44448   44457       1
   44451   44460  -44466   44457       1   44451   44460   44466   44475       1
   44448   44433   44451   44460       1   44448   44457  -44466   44460       1
   44448   44457   44466   44475       1   44448   44457   44469   44478       1
   44436   44448   44433   44451       1   44436   44448   44457   44466       1
   44436   44448   44457   44469       1   44433   44448   44457   44466       1
   44433   44448   44457   44469       1   44433   44451  -44460   44466       1
   44427   44412   44433   44448       1   44427   44412   44433   44451       1
   44415   44397   44412   44427       1   44415   44397   44412   44433       1
   44415   44436  -44448   44433       1   44415   44436   44448   44457       1
   44412   44397   44415   44436       1   44412   44433  -44448   44436       1
   44412   44433   44448   44457       1   44412   44433   44451   44460       1
   44409   44394   44406   44418       1   44409   44427   44412   44433       1
   44406   44394   44409   44427       1   44397   44388   44391   44400       1
   44397   44388   44394   44406       1   44397   44388   44394   44409       1
   44397   44412  -44427   44409       1   44397   44412   44433   44448       1
   44397   44412   44433   44451       1   44397   44415  -44436   44448       1
   44394   44388   44391   44400       1   44394   44388   44397   44412       1
   44394   44388   44397   44415       1   44394   44406  -44418   44400       1
   44394   44409  -44427   44412       1   44391   44388   44394   44406       1
   44391   44388   44394   44409       1   44391   44388   44397   44412       1
   44391   44388   44397   44415       1   44391   44400  -44418   44406       1
   44388   44391   44400   44418       1   44388   44394  -44406   44418       1
   44388   44394   44409   44427       1   44388   44397  -44412   44427       1
   44388   44397   44412   44433       1   44388   44397   44415   44436       1
   44577   44565   44574   44583       1   44577   44586  -44592   44583       1
   44574   44565   44577   44586       1   44574   44583  -44592   44586       1
   44568   44574   44565   44577       1   44568   44574   44583   44592       1
   44565   44574   44583   44592       1   44565   44577  -44586   44592       1
   44559   44541   44556   44565       1   44559   44568  -44574   44565       1
   44559   44568   44574   44583       1   44556   44541   44559   44568       1
   44556   44565  -44574   44568       1   44556   44565   44574   44583       1
   44556   44565   44577   44586       1   44544   44556   44541   44559       1
   44544   44556   44565   44574       1   44544   44556   44565   44577       1
   44541   44556   44565   44574       1   44541   44556   44565   44577       1
   44541   44559  -44568   44574       1   44535   44520   44541   44556       1
   44535   44520   44541   44559       1   44523   44505   44520   44535       1
   44523   44505   44520   44541       1   44523   44544  -44556   44541       1
   44523   44544   44556   44565       1   44520   44505   44523   44544       1
   44520   44541  -44556   44544       1   44520   44541   44556   44565       1
   44520   44541   44559   44568       1   44517   44502   44514   44526       1
   44517   44535   44520   44541       1   44514   44502   44517   44535       1
   44505   44496   44499   44508       1   44505   44496   44502   44514       1
   44505   44496   44502   44517       1   44505   44520  -44535   44517       1
   44505   44520   44541   44556       1   44505   44520   44541   44559       1
   44505   44523  -44544   44556       1   44502   44496   44499   44508       1
   44502   44496   44505   44520       1   44502   44496   44505   44523       1
   44502   44514  -44526   44508       1   44502   44517  -44535   44520       1
   44499   44496   44502   44514       1   44499   44496   44502   44517       1
   44499   44496   44505   44520       1   44499   44496   44505   44523       1
   44499   44508  -44526   44514       1   44496   44499   44508   44526       1
   44496   44502  -44514   44526       1   44496   44502   44517   44535       1
   44496   44505  -44520   44535       1   44496   44505   44520   44541       1
   44496   44505   44523   44544       1   44685   44673   44682   44691       1
   44685   44694  -44700   44691       1   44682   44673   44685   44694       1
   44682   44691  -44700   44694       1   44676   44682   44673   44685       1
   44676   44682   44691   44700       1   44673   44682   44691   44700       1
   44673   44685  -44694   44700       1   44667   44649   44664   44673       1
   44667   44676  -44682   44673       1   44667   44676   44682   44691       1
   44664   44649   44667   44676       1   44664   44673  -44682   44676       1
   44664   44673   44682   44691       1   44664   44673   44685   44694       1
   44652   44664   44649   44667       1   44652   44664   44673   44682       1
   44652   44664   44673   44685       1   44649   44664   44673   44682       1
   44649   44664   44673   44685       1   44649   44667  -44676   44682       1
   44643   44628   44649   44664       1   44643   44628   44649   44667       1
   44631   44613   44628   44643       1   44631   44613   44628   44649       1
   44631   44652  -44664   44649       1   44631   44652   44664   44673       1
   44628   44613   44631   44652       1   44628   44649  -44664   44652       1
   44628   44649   44664   44673       1   44628   44649   44667   44676       1
   44625   44610   44622   44634       1   44625   44643   44628   44649       1
   44622   44610   44625   44643       1   44613   44604   44607   44616       1
   44613   44604   44610   44622       1   44613   44604   44610   44625       1
   44613   44628  -44643   44625       1   44613   44628   44649   44664       1
   44613   44628   44649   44667       1   44613   44631  -44652   44664       1
   44610   44604   44607   44616       1   44610   44604   44613   44628       1
   44610   44604   44613   44631       1   44610   44622  -44634   44616       1
   44610   44625  -44643   44628       1   44607   44604   44610   44622       1
   44607   44604   44610   44625       1   44607   44604   44613   44628       1
   44607   44604   44613   44631       1   44607   44616  -44634   44622       1
   44604   44607   44616   44634       1   44604   44610  -44622   44634       1
   44604   44610   44625   44643       1   44604   44613  -44628   44643       1
   44604   44613   44628   44649       1   44604   44613   44631   44652       1
   44793   44781   44790   44799       1   44793   44802  -44808   44799       1
   44790   44781   44793   44802       1   44790   44799  -44808   44802       1
   44784   44790   44781   44793       1   44784   44790   44799   44808       1
   44781   44790   44799   44808       1   44781   44793  -44802   44808       1
   44775   44757   44772   44781       1   44775   44784  -44790   44781       1
   44775   44784   44790   44799       1   44772   44757   44775   44784       1
   44772   44781  -44790   44784       1   44772   44781   44790   44799       1
   44772   44781   44793   44802       1   44760   44772   44757   44775       1
   44760   44772   44781   44790       1   44760   44772   44781   44793       1
   44757   44772   44781   44790       1   44757   44772   44781   44793       1
   44757   44775  -44784   44790       1   44751   44736   44757   44772       1
   44751   44736   44757   44775       1   44739   44721   44736   44751       1
   44739   44721   44736   44757       1   44739   44760  -44772   44757       1
   44739   44760   44772   44781       1   44736   44721   44739   44760       1
   44736   44757  -44772   44760       1   44736   44757   44772   44781       1
   44736   44757   44775   44784       1   44733   44718   44730   44742       1
   44733   44751   44736   44757       1   44730   44718   44733   44751       1
   44721   44712   44715   44724       1   44721   44712   44718   44730       1
   44721   44712   44718   44733       1   44721   44736  -44751   44733       1
   44721   44736   44757   44772       1   44721   44736   44757   44775       1
   44721   44739  -44760   44772       1   44718   44712   44715   44724       1
   44718   44712   44721   44736       1   44718   44712   44721   44739       1
   44718   44730  -44742   44724       1   44718   44733  -44751   44736       1
   44715   44712   44718   44730       1   44715   44712   44718   44733       1
   44715   44712   44721   44736       1   44715   44712   44721   44739       1
   44715   44724  -44742   44730       1   44712   44715   44724   44742       1
   44712   44718  -44730   44742       1   44712   44718   44733   44751       1
   44712   44721  -44736   44751       1   44712   44721   44736   44757       1
   44712   44721   44739   44760       1   44901   44889   44898   44907       1
   44901   44910  -44916   44907       1   44898   44889   44901   44910       1
   44898   44907  -44916   44910       1   44892   44898   44889   44901       1
   44892   44898   44907   44916       1   44889   44898   44907   44916       1
   44889   44901  -44910   44916       1   44883   44865   44880   44889       1
   44883   44892  -44898   44889       1   44883   44892   44898   44907       1
   44880   44865   44883   44892       1   44880   44889  -44898   44892       1
   44880   44889   44898   44907       1   44880   44889   44901   44910       1
   44868   44880   44865   44883       1   44868   44880   44889   44898       1
   44868   44880   44889   44901       1   44865   44880   44889   44898       1
   44865   44880   44889   44901       1   44865   44883  -44892   44898       1
   44859   44844   44865   44880       1   44859   44844   44865   44883       1
   44847   44829   44844   44859       1   44847   44829   44844   44865       1
   44847   44868  -44880   44865       1   44847   44868   44880   44889       1
   44844   44829   44847   44868       1   44844   44865  -44880   44868       1
   44844   44865   44880   44889       1   44844   44865   44883   44892       1
   44841   44826   44838   44850       1   44841   44859   44844   44865       1
   44838   44826   44841   44859       1   44829   44820   44823   44832       1
   44829   44820   44826   44838       1   44829   44820   44826   44841       1
   44829   44844  -44859   44841       1   44829   44844   44865   44880       1
   44829   44844   44865   44883       1   44829   44847  -44868   44880       1
   44826   44820   44823   44832       1   44826   44820   44829   44844       1
   44826   44820   44829   44847       1   44826   44838  -44850   44832       1
   44826   44841  -44859   44844       1   44823   44820   44826   44838       1
   44823   44820   44826   44841       1   44823   44820   44829   44844       1
   44823   44820   44829   44847       1   44823   44832  -44850   44838       1
   44820   44823   44832   44850       1   44820   44826  -44838   44850       1
   44820   44826   44841   44859       1   44820   44829  -44844   44859       1
   44820   44829   44844   44865       1   44820   44829   44847   44868       1
   45009   44997   45006   45015       1   45009   45018  -45024   45015       1
   45006   44997   45009   45018       1   45006   45015  -45024   45018       1
   45000   45006   44997   45009       1   45000   45006   45015   45024       1
   44997   45006   45015   45024       1   44997   45009  -45018   45024       1
   44991   44973   44988   44997       1   44991   45000  -45006   44997       1
   44991   45000   45006   45015       1   44988   44973   44991   45000       1
   44988   44997  -45006   45000       1   44988   44997   45006   45015       1
   44988   44997   45009   45018       1   44976   44988   44973   44991       1
   44976   44988   44997   45006       1   44976   44988   44997   45009       1
   44973   44988   44997   45006       1   44973   44988   44997   45009       1
   44973   44991  -45000   45006       1   44967   44952   44973   44988       1
   44967   44952   44973   44991       1   44955   44937   44952   44967       1
   44955   44937   44952   44973       1   44955   44976  -44988   44973       1
   44955   44976   44988   44997       1   44952   44937   44955   44976       1
   44952   44973  -44988   44976       1   44952   44973   44988   44997       1
   44952   44973   44991   45000       1   44949   44934   44946   44958       1
   44949   44967   44952   44973       1   44946   44934   44949   44967       1
   44937   44928   44931   44940       1   44937   44928   44934   44946       1
   44937   44928   44934   44949       1   44937   44952  -44967   44949       1
   44937   44952   44973   44988       1   44937   44952   44973   44991       1
   44937   44955  -44976   44988       1   44934   44928   44931   44940       1
   44934   44928   44937   44952       1   44934   44928   44937   44955       1
   44934   44946  -44958   44940       1   44934   44949  -44967   44952       1
   44931   44928   44934   44946       1   44931   44928   44934   44949       1
   44931   44928   44937   44952       1   44931   44928   44937   44955       1
   44931   44940  -44958   44946       1   44928   44931   44940   44958       1
   44928   44934  -44946   44958       1   44928   44934   44949   44967       1
   44928   44937  -44952   44967       1   44928   44937   44952   44973       1
   44928   44937   44955   44976       1   45117   45105   45114   45123       1
   45117   45126  -45132   45123       1   45114   45105   45117   45126       1
   45114   45123  -45132   45126       1   45108   45114   45105   45117       1
   45108   45114   45123   45132       1   45105   45114   45123   45132       1
   45105   45117  -45126   45132       1   45099   45081   45096   45105       1
   45099   45108  -45114   45105       1   45099   45108   45114   45123       1
   45096   45081   45099   45108       1   45096   45105  -45114   45108       1
   45096   45105   45114   45123       1   45096   45105   45117   45126       1
   45084   45096   45081   45099       1   45084   45096   45105   45114       1
   45084   45096   45105   45117       1   45081   45096   45105   45114       1
   45081   45096   45105   45117       1   45081   45099  -45108   45114       1
   45075   45060   45081   45096       1   45075   45060   45081   45099       1
   45063   45045   45060   45075       1   45063   45045   45060   45081       1
   45063   45084  -45096   45081       1   45063   45084   45096   45105       1
   45060   45045   45063   45084       1   45060   45081  -45096   45084       1
   45060   45081   45096   45105       1   45060   45081   45099   45108       1
   45057   45042   45054   45066       1   45057   45075   45060   45081       1
   45054   45042   45057   45075       1   45045   45036   45039   45048       1
   45045   45036   45042   45054       1   45045   45036   45042   45057       1
   45045   45060  -45075   45057       1   45045   45060   45081   45096       1
   45045   45060   45081   45099       1   45045   45063  -45084   45096       1
   45042   45036   45039   45048       1   45042   45036   45045   45060       1
   45042   45036   45045   45063       1   45042   45054  -45066   45048       1
   45042   45057  -45075   45060       1   45039   45036   45042   45054       1
   45039   45036   45042   45057       1   45039   45036   45045   45060       1
   45039   45036   45045   45063       1   45039   45048  -45066   45054       1
   45036   45039   45048   45066       1   45036   45042  -45054   45066       1
   45036   45042   45057   45075       1   45036   45045  -45060   45075       1
   45036   45045   45060   45081       1   45036   45045   45063   45084       1
   45225   45213   45222   45231       1   45225   45234  -45240   45231       1
   45222   45213   45225   45234       1   45222   45231  -45240   45234       1
   45216   45222   45213   45225       1   45216   45222   45231   45240       1
   45213   45222   45231   45240       1   45213   45225  -45234   45240       1
   45207   45189   45204   45213       1   45207   45216  -45222   45213       1
   45207   45216   45222   45231       1   45204   45189   45207   45216       1
   45204   45213  -45222   45216       1   45204   45213   45222   45231       1
   45204   45213   45225   45234       1   45192   45204   45189   45207       1
   45192   45204   45213   45222       1   45192   45204   45213   45225       1
   45189   45204   45213   45222       1   45189   45204   45213   45225       1
   45189   45207  -45216   45222       1   45183   45168   45189   45204       1
   45183   45168   45189   45207       1   45171   45153   45168   45183       1
   45171   45153   45168   45189       1   45171   45192  -45204   45189       1
   45171   45192   45204   45213       1   45168   45153   45171   45192       1
   45168   45189  -45204   45192       1   45168   45189   45204   45213       1
   45168   45189   45207   45216       1   45165   45150   45162   45174       1
   45165   45183   45168   45189       1   45162   45150   45165   45183       1
   45153   45144   45147   45156       1   45153   45144   45150   45162       1
   45153   45144   45150   45165       1   45153   45168  -45183   45165       1
   45153   45168   45189   45204       1   45153   45168   45189   45207       1
   45153   45171  -45192   45204       1   45150   45144   45147   45156       1
   45150   45144   45153   45168       1   45150   45144   45153   45171       1
   45150   45162  -45174   45156       1   45150   45165  -45183   45168       1
   45147   45144   45150   45162       1   45147   45144   45150   45165       1
   45147   45144   45153   45168       1   45147   45144   45153   45171       1
   45147   45156  -45174   45162       1   45144   45147   45156   45174       1
   45144   45150  -45162   45174       1   45144   45150   45165   45183       1
   45144   45153  -45168   45183       1   45144   45153   45168   45189       1
   45144   45153   45171   45192       1   45333   45321   45330   45339       1
   45333   45342  -45348   45339       1   45330   45321   45333   45342       1
   45330   45339  -45348   45342       1   45324   45330   45321   45333       1
   45324   45330   45339   45348       1   45321   45330   45339   45348       1
   45321   45333  -45342   45348       1   45315   45297   45312   45321       1
   45315   45324  -45330   45321       1   45315   45324   45330   45339       1
   45312   45297   45315   45324       1   45312   45321  -45330   45324       1
   45312   45321   45330   45339       1   45312   45321   45333   45342       1
   45300   45312   45297   45315       1   45300   45312   45321   45330       1
   45300   45312   45321   45333       1   45297   45312   45321   45330       1
   45297   45312   45321   45333       1   45297   45315  -45324   45330       1
   45291   45276   45297   45312       1   45291   45276   45297   45315       1
   45279   45261   45276   45291       1   45279   45261   45276   45297       1
   45279   45300  -45312   45297       1   45279   45300   45312   45321       1
   45276   45261   45279   45300       1   45276   45297  -45312   45300       1
   45276   45297   45312   45321       1   45276   45297   45315   45324       1
   45273   45258   45270   45282       1   45273   45291   45276   45297       1
   45270   45258   45273   45291       1   45261   45252   45255   45264       1
   45261   45252   45258   45270       1   45261   45252   45258   45273       1
   45261   45276  -45291   45273       1   45261   45276   45297   45312       1
   45261   45276   45297   45315       1   45261   45279  -45300   45312       1
   45258   45252   45255   45264       1   45258   45252   45261   45276       1
   45258   45252   45261   45279       1   45258   45270  -45282   45264       1
   45258   45273  -45291   45276       1   45255   45252   45258   45270       1
   45255   45252   45258   45273       1   45255   45252   45261   45276       1
   45255   45252   45261   45279       1   45255   45264  -45282   45270       1
   45252   45255   45264   45282       1   45252   45258  -45270   45282       1
   45252   45258   45273   45291       1   45252   45261  -45276   45291       1
   45252   45261   45276   45297       1   45252   45261   45279   45300       1
   45441   45429   45438   45447       1   45441   45450  -45456   45447       1
   45438   45429   45441   45450       1   45438   45447  -45456   45450       1
   45432   45438   45429   45441       1   45432   45438   45447   45456       1
   45429   45438   45447   45456       1   45429   45441  -45450   45456       1
   45423   45405   45420   45429       1   45423   45432  -45438   45429       1
   45423   45432   45438   45447       1   45420   45405   45423   45432       1
   45420   45429  -45438   45432       1   45420   45429   45438   45447       1
   45420   45429   45441   45450       1   45408   45420   45405   45423       1
   45408   45420   45429   45438       1   45408   45420   45429   45441       1
   45405   45420   45429   45438       1   45405   45420   45429   45441       1
   45405   45423  -45432   45438       1   45399   45384   45405   45420       1
   45399   45384   45405   45423       1   45387   45369   45384   45399       1
   45387   45369   45384   45405       1   45387   45408  -45420   45405       1
   45387   45408   45420   45429       1   45384   45369   45387   45408       1
   45384   45405  -45420   45408       1   45384   45405   45420   45429       1
   45384   45405   45423   45432       1   45381   45366   45378   45390       1
   45381   45399   45384   45405       1   45378   45366   45381   45399       1
   45369   45360   45363   45372       1   45369   45360   45366   45378       1
   45369   45360   45366   45381       1   45369   45384  -45399   45381       1
   45369   45384   45405   45420       1   45369   45384   45405   45423       1
   45369   45387  -45408   45420       1   45366   45360   45363   45372       1
   45366   45360   45369   45384       1   45366   45360   45369   45387       1
   45366   45378  -45390   45372       1   45366   45381  -45399   45384       1
   45363   45360   45366   45378       1   45363   45360   45366   45381       1
   45363   45360   45369   45384       1   45363   45360   45369   45387       1
   45363   45372  -45390   45378       1   45360   45363   45372   45390       1
   45360   45366  -45378   45390       1   45360   45366   45381   45399       1
   45360   45369  -45384   45399       1   45360   45369   45384   45405       1
   45360   45369   45387   45408       1   45549   45537   45546   45555       1
   45549   45558  -45564   45555       1   45546   45537   45549   45558       1
   45546   45555  -45564   45558       1   45540   45546   45537   45549       1
   45540   45546   45555   45564       1   45537   45546   45555   45564       1
   45537   45549  -45558   45564       1   45531   45513   45528   45537       1
   45531   45540  -45546   45537       1   45531   45540   45546   45555       1
   45528   45513   45531   45540       1   45528   45537  -45546   45540       1
   45528   45537   45546   45555       1   45528   45537   45549   45558       1
   45516   45528   45513   45531       1   45516   45528   45537   45546       1
   45516   45528   45537   45549       1   45513   45528   45537   45546       1
   45513   45528   45537   45549       1   45513   45531  -45540   45546       1
   45507   45492   45513   45528       1   45507   45492   45513   45531       1
   45495   45477   45492   45507       1   45495   45477   45492   45513       1
   45495   45516  -45528   45513       1   45495   45516   45528   45537       1
   45492   45477   45495   45516       1   45492   45513  -45528   45516       1
   45492   45513   45528   45537       1   45492   45513   45531   45540       1
   45489   45474   45486   45498       1   45489   45507   45492   45513       1
   45486   45474   45489   45507       1   45477   45468   45471   45480       1
   45477   45468   45474   45486       1   45477   45468   45474   45489       1
   45477   45492  -45507   45489       1   45477   45492   45513   45528       1
   45477   45492   45513   45531       1   45477   45495  -45516   45528       1
   45474   45468   45471   45480       1   45474   45468   45477   45492       1
   45474   45468   45477   45495       1   45474   45486  -45498   45480       1
   45474   45489  -45507   45492       1   45471   45468   45474   45486       1
   45471   45468   45474   45489       1   45471   45468   45477   45492       1
   45471   45468   45477   45495       1   45471   45480  -45498   45486       1
   45468   45471   45480   45498       1   45468   45474  -45486   45498       1
   45468   45474   45489   45507       1   45468   45477  -45492   45507       1
   45468   45477   45492   45513       1   45468   45477   45495   45516       1
   45657   45645   45654   45663       1   45657   45666  -45672   45663       1
   45654   45645   45657   45666       1   45654   45663  -45672   45666       1
   45648   45654   45645   45657       1   45648   45654   45663   45672       1
   45645   45654   45663   45672       1   45645   45657  -45666   45672       1
   45639   45621   45636   45645       1   45639   45648  -45654   45645       1
   45639   45648   45654   45663       1   45636   45621   45639   45648       1
   45636   45645  -45654   45648       1   45636   45645   45654   45663       1
   45636   45645   45657   45666       1   45624   45636   45621   45639       1
   45624   45636   45645   45654       1   45624   45636   45645   45657       1
   45621   45636   45645   45654       1   45621   45636   45645   45657       1
   45621   45639  -45648   45654       1   45615   45600   45621   45636       1
   45615   45600   45621   45639       1   45603   45585   45600   45615       1
   45603   45585   45600   45621       1   45603   45624  -45636   45621       1
   45603   45624   45636   45645       1   45600   45585   45603   45624       1
   45600   45621  -45636   45624       1   45600   45621   45636   45645       1
   45600   45621   45639   45648       1   45597   45582   45594   45606       1
   45597   45615   45600   45621       1   45594   45582   45597   45615       1
   45585   45576   45579   45588       1   45585   45576   45582   45594       1
   45585   45576   45582   45597       1   45585   45600  -45615   45597       1
   45585   45600   45621   45636       1   45585   45600   45621   45639       1
   45585   45603  -45624   45636       1   45582   45576   45579   45588       1
   45582   45576   45585   45600       1   45582   45576   45585   45603       1
   45582   45594  -45606   45588       1   45582   45597  -45615   45600       1
   45579   45576   45582   45594       1   45579   45576   45582   45597       1
   45579   45576   45585   45600       1   45579   45576   45585   45603       1
   45579   45588  -45606   45594       1   45576   45579   45588   45606       1
   45576   45582  -45594   45606       1   45576   45582   45597   45615       1
   45576   45585  -45600   45615       1   45576   45585   45600   45621       1
   45576   45585   45603   45624       1   45765   45753   45762   45771       1
   45765   45774  -45780   45771       1   45762   45753   45765   45774       1
   45762   45771  -45780   45774       1   45756   45762   45753   45765       1
   45756   45762   45771   45780       1   45753   45762   45771   45780       1
   45753   45765  -45774   45780       1   45747   45729   45744   45753       1
   45747   45756  -45762   45753       1   45747   45756   45762   45771       1
   45744   45729   45747   45756       1   45744   45753  -45762   45756       1
   45744   45753   45762   45771       1   45744   45753   45765   45774       1
   45732   45744   45729   45747       1   45732   45744   45753   45762       1
   45732   45744   45753   45765       1   45729   45744   45753   45762       1
   45729   45744   45753   45765       1   45729   45747  -45756   45762       1
   45723   45708   45729   45744       1   45723   45708   45729   45747       1
   45711   45693   45708   45723       1   45711   45693   45708   45729       1
   45711   45732  -45744   45729       1   45711   45732   45744   45753       1
   45708   45693   45711   45732       1   45708   45729  -45744   45732       1
   45708   45729   45744   45753       1   45708   45729   45747   45756       1
   45705   45690   45702   45714       1   45705   45723   45708   45729       1
   45702   45690   45705   45723       1   45693   45684   45687   45696       1
   45693   45684   45690   45702       1   45693   45684   45690   45705       1
   45693   45708  -45723   45705       1   45693   45708   45729   45744       1
   45693   45708   45729   45747       1   45693   45711  -45732   45744       1
   45690   45684   45687   45696       1   45690   45684   45693   45708       1
   45690   45684   45693   45711       1   45690   45702  -45714   45696       1
   45690   45705  -45723   45708       1   45687   45684   45690   45702       1
   45687   45684   45690   45705       1   45687   45684   45693   45708       1
   45687   45684   45693   45711       1   45687   45696  -45714   45702       1
   45684   45687   45696   45714       1   45684   45690  -45702   45714       1
   45684   45690   45705   45723       1   45684   45693  -45708   45723       1
   45684   45693   45708   45729       1   45684   45693   45711   45732       1
   45873   45861   45870   45879       1   45873   45882  -45888   45879       1
   45870   45861   45873   45882       1   45870   45879  -45888   45882       1
   45864   45870   45861   45873       1   45864   45870   45879   45888       1
   45861   45870   45879   45888       1   45861   45873  -45882   45888       1
   45855   45837   45852   45861       1   45855   45864  -45870   45861       1
   45855   45864   45870   45879       1   45852   45837   45855   45864       1
   45852   45861  -45870   45864       1   45852   45861   45870   45879       1
   45852   45861   45873   45882       1   45840   45852   45837   45855       1
   45840   45852   45861   45870       1   45840   45852   45861   45873       1
   45837   45852   45861   45870       1   45837   45852   45861   45873       1
   45837   45855  -45864   45870       1   45831   45816   45837   45852       1
   45831   45816   45837   45855       1   45819   45801   45816   45831       1
   45819   45801   45816   45837       1   45819   45840  -45852   45837       1
   45819   45840   45852   45861       1   45816   45801   45819   45840       1
   45816   45837  -45852   45840       1   45816   45837   45852   45861       1
   45816   45837   45855   45864       1   45813   45798   45810   45822       1
   45813   45831   45816   45837       1   45810   45798   45813   45831       1
   45801   45792   45795   45804       1   45801   45792   45798   45810       1
   45801   45792   45798   45813       1   45801   45816  -45831   45813       1
   45801   45816   45837   45852       1   45801   45816   45837   45855       1
   45801   45819  -45840   45852       1   45798   45792   45795   45804       1
   45798   45792   45801   45816       1   45798   45792   45801   45819       1
   45798   45810  -45822   45804       1   45798   45813  -45831   45816       1
   45795   45792   45798   45810       1   45795   45792   45798   45813       1
   45795   45792   45801   45816       1   45795   45792   45801   45819       1
   45795   45804  -45822   45810       1   45792   45795   45804   45822       1
   45792   45798  -45810   45822       1   45792   45798   45813   45831       1
   45792   45801  -45816   45831       1   45792   45801   45816   45837       1
   45792   45801   45819   45840       1   45981   45969   45978   45987       1
   45981   45990  -45996   45987       1   45978   45969   45981   45990       1
   45978   45987  -45996   45990       1   45972   45978   45969   45981       1
   45972   45978   45987   45996       1   45969   45978   45987   45996       1
   45969   45981  -45990   45996       1   45963   45945   45960   45969       1
   45963   45972  -45978   45969       1   45963   45972   45978   45987       1
   45960   45945   45963   45972       1   45960   45969  -45978   45972       1
   45960   45969   45978   45987       1   45960   45969   45981   45990       1
   45948   45960   45945   45963       1   45948   45960   45969   45978       1
   45948   45960   45969   45981       1   45945   45960   45969   45978       1
   45945   45960   45969   45981       1   45945   45963  -45972   45978       1
   45939   45924   45945   45960       1   45939   45924   45945   45963       1
   45927   45909   45924   45939       1   45927   45909   45924   45945       1
   45927   45948  -45960   45945       1   45927   45948   45960   45969       1
   45924   45909   45927   45948       1   45924   45945  -45960   45948       1
   45924   45945   45960   45969       1   45924   45945   45963   45972       1
   45921   45906   45918   45930       1   45921   45939   45924   45945       1
   45918   45906   45921   45939       1   45909   45900   45903   45912       1
   45909   45900   45906   45918       1   45909   45900   45906   45921       1
   45909   45924  -45939   45921       1   45909   45924   45945   45960       1
   45909   45924   45945   45963       1   45909   45927  -45948   45960       1
   45906   45900   45903   45912       1   45906   45900   45909   45924       1
   45906   45900   45909   45927       1   45906   45918  -45930   45912       1
   45906   45921  -45939   45924       1   45903   45900   45906   45918       1
   45903   45900   45906   45921       1   45903   45900   45909   45924       1
   45903   45900   45909   45927       1   45903   45912  -45930   45918       1
   45900   45903   45912   45930       1   45900   45906  -45918   45930       1
   45900   45906   45921   45939       1   45900   45909  -45924   45939       1
   45900   45909   45924   45945       1   45900   45909   45927   45948       1
   46089   46077   46086   46095       1   46089   46098  -46104   46095       1
   46086   46077   46089   46098       1   46086   46095  -46104   46098       1
   46080   46086   46077   46089       1   46080   46086   46095   46104       1
   46077   46086   46095   46104       1   46077   46089  -46098   46104       1
   46071   46053   46068   46077       1   46071   46080  -46086   46077       1
   46071   46080   46086   46095       1   46068   46053   46071   46080       1
   46068   46077  -46086   46080       1   46068   46077   46086   46095       1
   46068   46077   46089   46098       1   46056   46068   46053   46071       1
   46056   46068   46077   46086       1   46056   46068   46077   46089       1
   46053   46068   46077   46086       1   46053   46068   46077   46089       1
   46053   46071  -46080   46086       1   46047   46032   46053   46068       1
   46047   46032   46053   46071       1   46035   46017   46032   46047       1
   46035   46017   46032   46053       1   46035   46056  -46068   46053       1
   46035   46056   46068   46077       1   46032   46017   46035   46056       1
   46032   46053  -46068   46056       1   46032   46053   46068   46077       1
   46032   46053   46071   46080       1   46029   46014   46026   46038       1
   46029   46047   46032   46053       1   46026   46014   46029   46047       1
   46017   46008   46011   46020       1   46017   46008   46014   46026       1
   46017   46008   46014   46029       1   46017   46032  -46047   46029       1
   46017   46032   46053   46068       1   46017   46032   46053   46071       1
   46017   46035  -46056   46068       1   46014   46008   46011   46020       1
   46014   46008   46017   46032       1   46014   46008   46017   46035       1
   46014   46026  -46038   46020       1   46014   46029  -46047   46032       1
   46011   46008   46014   46026       1   46011   46008   46014   46029       1
   46011   46008   46017   46032       1   46011   46008   46017   46035       1
   46011   46020  -46038   46026       1   46008   46011   46020   46038       1
   46008   46014  -46026   46038       1   46008   46014   46029   46047       1
   46008   46017  -46032   46047       1   46008   46017   46032   46053       1
   46008   46017   46035   46056       1   46197   46185   46194   46203       1
   46197   46206  -46212   46203       1   46194   46185   46197   46206       1
   46194   46203  -46212   46206       1   46188   46194   46185   46197       1
   46188   46194   46203   46212       1   46185   46194   46203   46212       1
   46185   46197  -46206   46212       1   46179   46161   46176   46185       1
   46179   46188  -46194   46185       1   46179   46188   46194   46203       1
   46176   46161   46179   46188       1   46176   46185  -46194   46188       1
   46176   46185   46194   46203       1   46176   46185   46197   46206       1
   46164   46176   46161   46179       1   46164   46176   46185   46194       1
   46164   46176   46185   46197       1   46161   46176   46185   46194       1
   46161   46176   46185   46197       1   46161   46179  -46188   46194       1
   46155   46140   46161   46176       1   46155   46140   46161   46179       1
   46143   46125   46140   46155       1   46143   46125   46140   46161       1
   46143   46164  -46176   46161       1   46143   46164   46176   46185       1
   46140   46125   46143   46164       1   46140   46161  -46176   46164       1
   46140   46161   46176   46185       1   46140   46161   46179   46188       1
   46137   46122   46134   46146       1   46137   46155   46140   46161       1
   46134   46122   46137   46155       1   46125   46116   46119   46128       1
   46125   46116   46122   46134       1   46125   46116   46122   46137       1
   46125   46140  -46155   46137       1   46125   46140   46161   46176       1
   46125   46140   46161   46179       1   46125   46143  -46164   46176       1
   46122   46116   46119   46128       1   46122   46116   46125   46140       1
   46122   46116   46125   46143       1   46122   46134  -46146   46128       1
   46122   46137  -46155   46140       1   46119   46116   46122   46134       1
   46119   46116   46122   46137       1   46119   46116   46125   46140       1
   46119   46116   46125   46143       1   46119   46128  -46146   46134       1
   46116   46119   46128   46146       1   46116   46122  -46134   46146       1
   46116   46122   46137   46155       1   46116   46125  -46140   46155       1
   46116   46125   46140   46161       1   46116   46125   46143   46164       1
   46305   46293   46302   46311       1   46305   46314  -46320   46311       1
   46302   46293   46305   46314       1   46302   46311  -46320   46314       1
   46296   46302   46293   46305       1   46296   46302   46311   46320       1
   46293   46302   46311   46320       1   46293   46305  -46314   46320       1
   46287   46269   46284   46293       1   46287   46296  -46302   46293       1
   46287   46296   46302   46311       1   46284   46269   46287   46296       1
   46284   46293  -46302   46296       1   46284   46293   46302   46311       1
   46284   46293   46305   46314       1   46272   46284   46269   46287       1
   46272   46284   46293   46302       1   46272   46284   46293   46305       1
   46269   46284   46293   46302       1   46269   46284   46293   46305       1
   46269   46287  -46296   46302       1   46263   46248   46269   46284       1
   46263   46248   46269   46287       1   46251   46233   46248   46263       1
   46251   46233   46248   46269       1   46251   46272  -46284   46269       1
   46251   46272   46284   46293       1   46248   46233   46251   46272       1
   46248   46269  -46284   46272       1   46248   46269   46284   46293       1
   46248   46269   46287   46296       1   46245   46230   46242   46254       1
   46245   46263   46248   46269       1   46242   46230   46245   46263       1
   46233   46224   46227   46236       1   46233   46224   46230   46242       1
   46233   46224   46230   46245       1   46233   46248  -46263   46245       1
   46233   46248   46269   46284       1   46233   46248   46269   46287       1
   46233   46251  -46272   46284       1   46230   46224   46227   46236       1
   46230   46224   46233   46248       1   46230   46224   46233   46251       1
   46230   46242  -46254   46236       1   46230   46245  -46263   46248       1
   46227   46224   46230   46242       1   46227   46224   46230   46245       1
   46227   46224   46233   46248       1   46227   46224   46233   46251       1
   46227   46236  -46254   46242       1   46224   46227   46236   46254       1
   46224   46230  -46242   46254       1   46224   46230   46245   46263       1
   46224   46233  -46248   46263       1   46224   46233   46248   46269       1
   46224   46233   46251   46272       1   46413   46401   46410   46419       1
   46413   46422  -46428   46419       1   46410   46401   46413   46422       1
   46410   46419  -46428   46422       1   46404   46410   46401   46413       1
   46404   46410   46419   46428       1   46401   46410   46419   46428       1
   46401   46413  -46422   46428       1   46395   46377   46392   46401       1
   46395   46404  -46410   46401       1   46395   46404   46410   46419       1
   46392   46377   46395   46404       1   46392   46401  -46410   46404       1
   46392   46401   46410   46419       1   46392   46401   46413   46422       1
   46380   46392   46377   46395       1   46380   46392   46401   46410       1
   46380   46392   46401   46413       1   46377   46392   46401   46410       1
   46377   46392   46401   46413       1   46377   46395  -46404   46410       1
   46371   46356   46377   46392       1   46371   46356   46377   46395       1
   46359   46341   46356   46371       1   46359   46341   46356   46377       1
   46359   46380  -46392   46377       1   46359   46380   46392   46401       1
   46356   46341   46359   46380       1   46356   46377  -46392   46380       1
   46356   46377   46392   46401       1   46356   46377   46395   46404       1
   46353   46338   46350   46362       1   46353   46371   46356   46377       1
   46350   46338   46353   46371       1   46341   46332   46335   46344       1
   46341   46332   46338   46350       1   46341   46332   46338   46353       1
   46341   46356  -46371   46353       1   46341   46356   46377   46392       1
   46341   46356   46377   46395       1   46341   46359  -46380   46392       1
   46338   46332   46335   46344       1   46338   46332   46341   46356       1
   46338   46332   46341   46359       1   46338   46350  -46362   46344       1
   46338   46353  -46371   46356       1   46335   46332   46338   46350       1
   46335   46332   46338   46353       1   46335   46332   46341   46356       1
   46335   46332   46341   46359       1   46335   46344  -46362   46350       1
   46332   46335   46344   46362       1   46332   46338  -46350   46362       1
   46332   46338   46353   46371       1   46332   46341  -46356   46371       1
   46332   46341   46356   46377       1   46332   46341   46359   46380       1
   46521   46509   46518   46527       1   46521   46530  -46536   46527       1
   46518   46509   46521   46530       1   46518   46527  -46536   46530       1
   46512   46518   46509   46521       1   46512   46518   46527   46536       1
   46509   46518   46527   46536       1   46509   46521  -46530   46536       1
   46503   46485   46500   46509       1   46503   46512  -46518   46509       1
   46503   46512   46518   46527       1   46500   46485   46503   46512       1
   46500   46509  -46518   46512       1   46500   46509   46518   46527       1
   46500   46509   46521   46530       1   46488   46500   46485   46503       1
   46488   46500   46509   46518       1   46488   46500   46509   46521       1
   46485   46500   46509   46518       1   46485   46500   46509   46521       1
   46485   46503  -46512   46518       1   46479   46464   46485   46500       1
   46479   46464   46485   46503       1   46467   46449   46464   46479       1
   46467   46449   46464   46485       1   46467   46488  -46500   46485       1
   46467   46488   46500   46509       1   46464   46449   46467   46488       1
   46464   46485  -46500   46488       1   46464   46485   46500   46509       1
   46464   46485   46503   46512       1   46461   46446   46458   46470       1
   46461   46479   46464   46485       1   46458   46446   46461   46479       1
   46449   46440   46443   46452       1   46449   46440   46446   46458       1
   46449   46440   46446   46461       1   46449   46464  -46479   46461       1
   46449   46464   46485   46500       1   46449   46464   46485   46503       1
   46449   46467  -46488   46500       1   46446   46440   46443   46452       1
   46446   46440   46449   46464       1   46446   46440   46449   46467       1
   46446   46458  -46470   46452       1   46446   46461  -46479   46464       1
   46443   46440   46446   46458       1   46443   46440   46446   46461       1
   46443   46440   46449   46464       1   46443   46440   46449   46467       1
   46443   46452  -46470   46458       1   46440   46443   46452   46470       1
   46440   46446  -46458   46470       1   46440   46446   46461   46479       1
   46440   46449  -46464   46479       1   46440   46449   46464   46485       1
   46440   46449   46467   46488       1   46629   46617   46626   46635       1
   46629   46638  -46644   46635       1   46626   46617   46629   46638       1
   46626   46635  -46644   46638       1   46620   46626   46617   46629       1
   46620   46626   46635   46644       1   46617   46626   46635   46644       1
   46617   46629  -46638   46644       1   46611   46593   46608   46617       1
   46611   46620  -46626   46617       1   46611   46620   46626   46635       1
   46608   46593   46611   46620       1   46608   46617  -46626   46620       1
   46608   46617   46626   46635       1   46608   46617   46629   46638       1
   46596   46608   46593   46611       1   46596   46608   46617   46626       1
   46596   46608   46617   46629       1   46593   46608   46617   46626       1
   46593   46608   46617   46629       1   46593   46611  -46620   46626       1
   46587   46572   46593   46608       1   46587   46572   46593   46611       1
   46575   46557   46572   46587       1   46575   46557   46572   46593       1
   46575   46596  -46608   46593       1   46575   46596   46608   46617       1
   46572   46557   46575   46596       1   46572   46593  -46608   46596       1
   46572   46593   46608   46617       1   46572   46593   46611   46620       1
   46569   46554   46566   46578       1   46569   46587   46572   46593       1
   46566   46554   46569   46587       1   46557   46548   46551   46560       1
   46557   46548   46554   46566       1   46557   46548   46554   46569       1
   46557   46572  -46587   46569       1   46557   46572   46593   46608       1
   46557   46572   46593   46611       1   46557   46575  -46596   46608       1
   46554   46548   46551   46560       1   46554   46548   46557   46572       1
   46554   46548   46557   46575       1   46554   46566  -46578   46560       1
   46554   46569  -46587   46572       1   46551   46548   46554   46566       1
   46551   46548   46554   46569       1   46551   46548   46557   46572       1
   46551   46548   46557   46575       1   46551   46560  -46578   46566       1
   46548   46551   46560   46578       1   46548   46554  -46566   46578       1
   46548   46554   46569   46587       1   46548   46557  -46572   46587       1
   46548   46557   46572   46593       1   46548   46557   46575   46596       1
   46737   46725   46734   46743       1   46737   46746  -46752   46743       1
   46734   46725   46737   46746       1   46734   46743  -46752   46746       1
   46728   46734   46725   46737       1   46728   46734   46743   46752       1
   46725   46734   46743   46752       1   46725   46737  -46746   46752       1
   46719   46701   46716   46725       1   46719   46728  -46734   46725       1
   46719   46728   46734   46743       1   46716   46701   46719   46728       1
   46716   46725  -46734   46728       1   46716   46725   46734   46743       1
   46716   46725   46737   46746       1   46704   46716   46701   46719       1
   46704   46716   46725   46734       1   46704   46716   46725   46737       1
   46701   46716   46725   46734       1   46701   46716   46725   46737       1
   46701   46719  -46728   46734       1   46695   46680   46701   46716       1
   46695   46680   46701   46719       1   46683   46665   46680   46695       1
   46683   46665   46680   46701       1   46683   46704  -46716   46701       1
   46683   46704   46716   46725       1   46680   46665   46683   46704       1
   46680   46701  -46716   46704       1   46680   46701   46716   46725       1
   46680   46701   46719   46728       1   46677   46662   46674   46686       1
   46677   46695   46680   46701       1   46674   46662   46677   46695       1
   46665   46656   46659   46668       1   46665   46656   46662   46674       1
   46665   46656   46662   46677       1   46665   46680  -46695   46677       1
   46665   46680   46701   46716       1   46665   46680   46701   46719       1
   46665   46683  -46704   46716       1   46662   46656   46659   46668       1
   46662   46656   46665   46680       1   46662   46656   46665   46683       1
   46662   46674  -46686   46668       1   46662   46677  -46695   46680       1
   46659   46656   46662   46674       1   46659   46656   46662   46677       1
   46659   46656   46665   46680       1   46659   46656   46665   46683       1
   46659   46668  -46686   46674       1   46656   46659   46668   46686       1
   46656   46662  -46674   46686       1   46656   46662   46677   46695       1
   46656   46665  -46680   46695       1   46656   46665   46680   46701       1
   46656   46665   46683   46704       1   46845   46833   46842   46851       1
   46845   46854  -46860   46851       1   46842   46833   46845   46854       1
   46842   46851  -46860   46854       1   46836   46842   46833   46845       1
   46836   46842   46851   46860       1   46833   46842   46851   46860       1
   46833   46845  -46854   46860       1   46827   46809   46824   46833       1
   46827   46836  -46842   46833       1   46827   46836   46842   46851       1
   46824   46809   46827   46836       1   46824   46833  -46842   46836       1
   46824   46833   46842   46851       1   46824   46833   46845   46854       1
   46812   46824   46809   46827       1   46812   46824   46833   46842       1
   46812   46824   46833   46845       1   46809   46824   46833   46842       1
   46809   46824   46833   46845       1   46809   46827  -46836   46842       1
   46803   46788   46809   46824       1   46803   46788   46809   46827       1
   46791   46773   46788   46803       1   46791   46773   46788   46809       1
   46791   46812  -46824   46809       1   46791   46812   46824   46833       1
   46788   46773   46791   46812       1   46788   46809  -46824   46812       1
   46788   46809   46824   46833       1   46788   46809   46827   46836       1
   46785   46770   46782   46794       1   46785   46803   46788   46809       1
   46782   46770   46785   46803       1   46773   46764   46767   46776       1
   46773   46764   46770   46782       1   46773   46764   46770   46785       1
   46773   46788  -46803   46785       1   46773   46788   46809   46824       1
   46773   46788   46809   46827       1   46773   46791  -46812   46824       1
   46770   46764   46767   46776       1   46770   46764   46773   46788       1
   46770   46764   46773   46791       1   46770   46782  -46794   46776       1
   46770   46785  -46803   46788       1   46767   46764   46770   46782       1
   46767   46764   46770   46785       1   46767   46764   46773   46788       1
   46767   46764   46773   46791       1   46767   46776  -46794   46782       1
   46764   46767   46776   46794       1   46764   46770  -46782   46794       1
   46764   46770   46785   46803       1   46764   46773  -46788   46803       1
   46764   46773   46788   46809       1   46764   46773   46791   46812       1
   46953   46941   46950   46959       1   46953   46962  -46968   46959       1
   46950   46941   46953   46962       1   46950   46959  -46968   46962       1
   46944   46950   46941   46953       1   46944   46950   46959   46968       1
   46941   46950   46959   46968       1   46941   46953  -46962   46968       1
   46935   46917   46932   46941       1   46935   46944  -46950   46941       1
   46935   46944   46950   46959       1   46932   46917   46935   46944       1
   46932   46941  -46950   46944       1   46932   46941   46950   46959       1
   46932   46941   46953   46962       1   46920   46932   46917   46935       1
   46920   46932   46941   46950       1   46920   46932   46941   46953       1
   46917   46932   46941   46950       1   46917   46932   46941   46953       1
   46917   46935  -46944   46950       1   46911   46896   46917   46932       1
   46911   46896   46917   46935       1   46899   46881   46896   46911       1
   46899   46881   46896   46917       1   46899   46920  -46932   46917       1
   46899   46920   46932   46941       1   46896   46881   46899   46920       1
   46896   46917  -46932   46920       1   46896   46917   46932   46941       1
   46896   46917   46935   46944       1   46893   46878   46890   46902       1
   46893   46911   46896   46917       1   46890   46878   46893   46911       1
   46881   46872   46875   46884       1   46881   46872   46878   46890       1
   46881   46872   46878   46893       1   46881   46896  -46911   46893       1
   46881   46896   46917   46932       1   46881   46896   46917   46935       1
   46881   46899  -46920   46932       1   46878   46872   46875   46884       1
   46878   46872   46881   46896       1   46878   46872   46881   46899       1
   46878   46890  -46902   46884       1   46878   46893  -46911   46896       1
   46875   46872   46878   46890       1   46875   46872   46878   46893       1
   46875   46872   46881   46896       1   46875   46872   46881   46899       1
   46875   46884  -46902   46890       1   46872   46875   46884   46902       1
   46872   46878  -46890   46902       1   46872   46878   46893   46911       1
   46872   46881  -46896   46911       1   46872   46881   46896   46917       1
   46872   46881   46899   46920       1   47061   47049   47058   47067       1
   47061   47070  -47076   47067       1   47058   47049   47061   47070       1
   47058   47067  -47076   47070       1   47052   47058   47049   47061       1
   47052   47058   47067   47076       1   47049   47058   47067   47076       1
   47049   47061  -47070   47076       1   47043   47025   47040   47049       1
   47043   47052  -47058   47049       1   47043   47052   47058   47067       1
   47040   47025   47043   47052       1   47040   47049  -47058   47052       1
   47040   47049   47058   47067       1   47040   47049   47061   47070       1
   47028   47040   47025   47043       1   47028   47040   47049   47058       1
   47028   47040   47049   47061       1   47025   47040   47049   47058       1
   47025   47040   47049   47061       1   47025   47043  -47052   47058       1
   47019   47004   47025   47040       1   47019   47004   47025   47043       1
   47007   46989   47004   47019       1   47007   46989   47004   47025       1
   47007   47028  -47040   47025       1   47007   47028   47040   47049       1
   47004   46989   47007   47028       1   47004   47025  -47040   47028       1
   47004   47025   47040   47049       1   47004   47025   47043   47052       1
   47001   46986   46998   47010       1   47001   47019   47004   47025       1
   46998   46986   47001   47019       1   46989   46980   46983   46992       1
   46989   46980   46986   46998       1   46989   46980   46986   47001       1
   46989   47004  -47019   47001       1   46989   47004   47025   47040       1
   46989   47004   47025   47043       1   46989   47007  -47028   47040       1
   46986   46980   46983   46992       1   46986   46980   46989   47004       1
   46986   46980   46989   47007       1   46986   46998  -47010   46992       1
   46986   47001  -47019   47004       1   46983   46980   46986   46998       1
   46983   46980   46986   47001       1   46983   46980   46989   47004       1
   46983   46980   46989   47007       1   46983   46992  -47010   46998       1
   46980   46983   46992   47010       1   46980   46986  -46998   47010       1
   46980   46986   47001   47019       1   46980   46989  -47004   47019       1
   46980   46989   47004   47025       1   46980   46989   47007   47028       1
   47169   47157   47166   47175       1   47169   47178  -47184   47175       1
   47166   47157   47169   47178       1   47166   47175  -47184   47178       1
   47160   47166   47157   47169       1   47160   47166   47175   47184       1
   47157   47166   47175   47184       1   47157   47169  -47178   47184       1
   47151   47133   47148   47157       1   47151   47160  -47166   47157       1
   47151   47160   47166   47175       1   47148   47133   47151   47160       1
   47148   47157  -47166   47160       1   47148   47157   47166   47175       1
   47148   47157   47169   47178       1   47136   47148   47133   47151       1
   47136   47148   47157   47166       1   47136   47148   47157   47169       1
   47133   47148   47157   47166       1   47133   47148   47157   47169       1
   47133   47151  -47160   47166       1   47127   47112   47133   47148       1
   47127   47112   47133   47151       1   47115   47097   47112   47127       1
   47115   47097   47112   47133       1   47115   47136  -47148   47133       1
   47115   47136   47148   47157       1   47112   47097   47115   47136       1
   47112   47133  -47148   47136       1   47112   47133   47148   47157       1
   47112   47133   47151   47160       1   47109   47094   47106   47118       1
   47109   47127   47112   47133       1   47106   47094   47109   47127       1
   47097   47088   47091   47100       1   47097   47088   47094   47106       1
   47097   47088   47094   47109       1   47097   47112  -47127   47109       1
   47097   47112   47133   47148       1   47097   47112   47133   47151       1
   47097   47115  -47136   47148       1   47094   47088   47091   47100       1
   47094   47088   47097   47112       1   47094   47088   47097   47115       1
   47094   47106  -47118   47100       1   47094   47109  -47127   47112       1
   47091   47088   47094   47106       1   47091   47088   47094   47109       1
   47091   47088   47097   47112       1   47091   47088   47097   47115       1
   47091   47100  -47118   47106       1   47088   47091   47100   47118       1
   47088   47094  -47106   47118       1   47088   47094   47109   47127       1
   47088   47097  -47112   47127       1   47088   47097   47112   47133       1
   47088   47097   47115   47136       1   47277   47265   47274   47283       1
   47277   47286  -47292   47283       1   47274   47265   47277   47286       1
   47274   47283  -47292   47286       1   47268   47274   47265   47277       1
   47268   47274   47283   47292       1   47265   47274   47283   47292       1
   47265   47277  -47286   47292       1   47259   47241   47256   47265       1
   47259   47268  -47274   47265       1   47259   47268   47274   47283       1
   47256   47241   47259   47268       1   47256   47265  -47274   47268       1
   47256   47265   47274   47283       1   47256   47265   47277   47286       1
   47244   47256   47241   47259       1   47244   47256   47265   47274       1
   47244   47256   47265   47277       1   47241   47256   47265   47274       1
   47241   47256   47265   47277       1   47241   47259  -47268   47274       1
   47235   47220   47241   47256       1   47235   47220   47241   47259       1
   47223   47205   47220   47235       1   47223   47205   47220   47241       1
   47223   47244  -47256   47241       1   47223   47244   47256   47265       1
   47220   47205   47223   47244       1   47220   47241  -47256   47244       1
   47220   47241   47256   47265       1   47220   47241   47259   47268       1
   47217   47202   47214   47226       1   47217   47235   47220   47241       1
   47214   47202   47217   47235       1   47205   47196   47199   47208       1
   47205   47196   47202   47214       1   47205   47196   47202   47217       1
   47205   47220  -47235   47217       1   47205   47220   47241   47256       1
   47205   47220   47241   47259       1   47205   47223  -47244   47256       1
   47202   47196   47199   47208       1   47202   47196   47205   47220       1
   47202   47196   47205   47223       1   47202   47214  -47226   47208       1
   47202   47217  -47235   47220       1   47199   47196   47202   47214       1
   47199   47196   47202   47217       1   47199   47196   47205   47220       1
   47199   47196   47205   47223       1   47199   47208  -47226   47214       1
   47196   47199   47208   47226       1   47196   47202  -47214   47226       1
   47196   47202   47217   47235       1   47196   47205  -47220   47235       1
   47196   47205   47220   47241       1   47196   47205   47223   47244       1
   47385   47373   47382   47391       1   47385   47394  -47400   47391       1
   47382   47373   47385   47394       1   47382   47391  -47400   47394       1
   47376   47382   47373   47385       1   47376   47382   47391   47400       1
   47373   47382   47391   47400       1   47373   47385  -47394   47400       1
   47367   47349   47364   47373       1   47367   47376  -47382   47373       1
   47367   47376   47382   47391       1   47364   47349   47367   47376       1
   47364   47373  -47382   47376       1   47364   47373   47382   47391       1
   47364   47373   47385   47394       1   47352   47364   47349   47367       1
   47352   47364   47373   47382       1   47352   47364   47373   47385       1
   47349   47364   47373   47382       1   47349   47364   47373   47385       1
   47349   47367  -47376   47382       1   47343   47328   47349   47364       1
   47343   47328   47349   47367       1   47331   47313   47328   47343       1
   47331   47313   47328   47349       1   47331   47352  -47364   47349       1
   47331   47352   47364   47373       1   47328   47313   47331   47352       1
   47328   47349  -47364   47352       1   47328   47349   47364   47373       1
   47328   47349   47367   47376       1   47325   47310   47322   47334       1
   47325   47343   47328   47349       1   47322   47310   47325   47343       1
   47313   47304   47307   47316       1   47313   47304   47310   47322       1
   47313   47304   47310   47325       1   47313   47328  -47343   47325       1
   47313   47328   47349   47364       1   47313   47328   47349   47367       1
   47313   47331  -47352   47364       1   47310   47304   47307   47316       1
   47310   47304   47313   47328       1   47310   47304   47313   47331       1
   47310   47322  -47334   47316       1   47310   47325  -47343   47328       1
   47307   47304   47310   47322       1   47307   47304   47310   47325       1
   47307   47304   47313   47328       1   47307   47304   47313   47331       1
   47307   47316  -47334   47322       1   47304   47307   47316   47334       1
   47304   47310  -47322   47334       1   47304   47310   47325   47343       1
   47304   47313  -47328   47343       1   47304   47313   47328   47349       1
   47304   47313   47331   47352       1   47493   47481   47490   47499       1
   47493   47502  -47508   47499       1   47490   47481   47493   47502       1
   47490   47499  -47508   47502       1   47484   47490   47481   47493       1
   47484   47490   47499   47508       1   47481   47490   47499   47508       1
   47481   47493  -47502   47508       1   47475   47457   47472   47481       1
   47475   47484  -47490   47481       1   47475   47484   47490   47499       1
   47472   47457   47475   47484       1   47472   47481  -47490   47484       1
   47472   47481   47490   47499       1   47472   47481   47493   47502       1
   47460   47472   47457   47475       1   47460   47472   47481   47490       1
   47460   47472   47481   47493       1   47457   47472   47481   47490       1
   47457   47472   47481   47493       1   47457   47475  -47484   47490       1
   47451   47436   47457   47472       1   47451   47436   47457   47475       1
   47439   47421   47436   47451       1   47439   47421   47436   47457       1
   47439   47460  -47472   47457       1   47439   47460   47472   47481       1
   47436   47421   47439   47460       1   47436   47457  -47472   47460       1
   47436   47457   47472   47481       1   47436   47457   47475   47484       1
   47433   47418   47430   47442       1   47433   47451   47436   47457       1
   47430   47418   47433   47451       1   47421   47412   47415   47424       1
   47421   47412   47418   47430       1   47421   47412   47418   47433       1
   47421   47436  -47451   47433       1   47421   47436   47457   47472       1
   47421   47436   47457   47475       1   47421   47439  -47460   47472       1
   47418   47412   47415   47424       1   47418   47412   47421   47436       1
   47418   47412   47421   47439       1   47418   47430  -47442   47424       1
   47418   47433  -47451   47436       1   47415   47412   47418   47430       1
   47415   47412   47418   47433       1   47415   47412   47421   47436       1
   47415   47412   47421   47439       1   47415   47424  -47442   47430       1
   47412   47415   47424   47442       1   47412   47418  -47430   47442       1
   47412   47418   47433   47451       1   47412   47421  -47436   47451       1
   47412   47421   47436   47457       1   47412   47421   47439   47460       1
   47601   47589   47598   47607       1   47601   47610  -47616   47607       1
   47598   47589   47601   47610       1   47598   47607  -47616   47610       1
   47592   47598   47589   47601       1   47592   47598   47607   47616       1
   47589   47598   47607   47616       1   47589   47601  -47610   47616       1
   47583   47565   47580   47589       1   47583   47592  -47598   47589       1
   47583   47592   47598   47607       1   47580   47565   47583   47592       1
   47580   47589  -47598   47592       1   47580   47589   47598   47607       1
   47580   47589   47601   47610       1   47568   47580   47565   47583       1
   47568   47580   47589   47598       1   47568   47580   47589   47601       1
   47565   47580   47589   47598       1   47565   47580   47589   47601       1
   47565   47583  -47592   47598       1   47559   47544   47565   47580       1
   47559   47544   47565   47583       1   47547   47529   47544   47559       1
   47547   47529   47544   47565       1   47547   47568  -47580   47565       1
   47547   47568   47580   47589       1   47544   47529   47547   47568       1
   47544   47565  -47580   47568       1   47544   47565   47580   47589       1
   47544   47565   47583   47592       1   47541   47526   47538   47550       1
   47541   47559   47544   47565       1   47538   47526   47541   47559       1
   47529   47520   47523   47532       1   47529   47520   47526   47538       1
   47529   47520   47526   47541       1   47529   47544  -47559   47541       1
   47529   47544   47565   47580       1   47529   47544   47565   47583       1
   47529   47547  -47568   47580       1   47526   47520   47523   47532       1
   47526   47520   47529   47544       1   47526   47520   47529   47547       1
   47526   47538  -47550   47532       1   47526   47541  -47559   47544       1
   47523   47520   47526   47538       1   47523   47520   47526   47541       1
   47523   47520   47529   47544       1   47523   47520   47529   47547       1
   47523   47532  -47550   47538       1   47520   47523   47532   47550       1
   47520   47526  -47538   47550       1   47520   47526   47541   47559       1
   47520   47529  -47544   47559       1   47520   47529   47544   47565       1
   47520   47529   47547   47568       1   47709   47697   47706   47715       1
   47709   47718  -47724   47715       1   47706   47697   47709   47718       1
   47706   47715  -47724   47718       1   47700   47706   47697   47709       1
   47700   47706   47715   47724       1   47697   47706   47715   47724       1
   47697   47709  -47718   47724       1   47691   47673   47688   47697       1
   47691   47700  -47706   47697       1   47691   47700   47706   47715       1
   47688   47673   47691   47700       1   47688   47697  -47706   47700       1
   47688   47697   47706   47715       1   47688   47697   47709   47718       1
   47676   47688   47673   47691       1   47676   47688   47697   47706       1
   47676   47688   47697   47709       1   47673   47688   47697   47706       1
   47673   47688   47697   47709       1   47673   47691  -47700   47706       1
   47667   47652   47673   47688       1   47667   47652   47673   47691       1
   47655   47637   47652   47667       1   47655   47637   47652   47673       1
   47655   47676  -47688   47673       1   47655   47676   47688   47697       1
   47652   47637   47655   47676       1   47652   47673  -47688   47676       1
   47652   47673   47688   47697       1   47652   47673   47691   47700       1
   47649   47634   47646   47658       1   47649   47667   47652   47673       1
   47646   47634   47649   47667       1   47637   47628   47631   47640       1
   47637   47628   47634   47646       1   47637   47628   47634   47649       1
   47637   47652  -47667   47649       1   47637   47652   47673   47688       1
   47637   47652   47673   47691       1   47637   47655  -47676   47688       1
   47634   47628   47631   47640       1   47634   47628   47637   47652       1
   47634   47628   47637   47655       1   47634   47646  -47658   47640       1
   47634   47649  -47667   47652       1   47631   47628   47634   47646       1
   47631   47628   47634   47649       1   47631   47628   47637   47652       1
   47631   47628   47637   47655       1   47631   47640  -47658   47646       1
   47628   47631   47640   47658       1   47628   47634  -47646   47658       1
   47628   47634   47649   47667       1   47628   47637  -47652   47667       1
   47628   47637   47652   47673       1   47628   47637   47655   47676       1
   47817   47805   47814   47823       1   47817   47826  -47832   47823       1
   47814   47805   47817   47826       1   47814   47823  -47832   47826       1
   47808   47814   47805   47817       1   47808   47814   47823   47832       1
   47805   47814   47823   47832       1   47805   47817  -47826   47832       1
   47799   47781   47796   47805       1   47799   47808  -47814   47805       1
   47799   47808   47814   47823       1   47796   47781   47799   47808       1
   47796   47805  -47814   47808       1   47796   47805   47814   47823       1
   47796   47805   47817   47826       1   47784   47796   47781   47799       1
   47784   47796   47805   47814       1   47784   47796   47805   47817       1
   47781   47796   47805   47814       1   47781   47796   47805   47817       1
   47781   47799  -47808   47814       1   47775   47760   47781   47796       1
   47775   47760   47781   47799       1   47763   47745   47760   47775       1
   47763   47745   47760   47781       1   47763   47784  -47796   47781       1
   47763   47784   47796   47805       1   47760   47745   47763   47784       1
   47760   47781  -47796   47784       1   47760   47781   47796   47805       1
   47760   47781   47799   47808       1   47757   47742   47754   47766       1
   47757   47775   47760   47781       1   47754   47742   47757   47775       1
   47745   47736   47739   47748       1   47745   47736   47742   47754       1
   47745   47736   47742   47757       1   47745   47760  -47775   47757       1
   47745   47760   47781   47796       1   47745   47760   47781   47799       1
   47745   47763  -47784   47796       1   47742   47736   47739   47748       1
   47742   47736   47745   47760       1   47742   47736   47745   47763       1
   47742   47754  -47766   47748       1   47742   47757  -47775   47760       1
   47739   47736   47742   47754       1   47739   47736   47742   47757       1
   47739   47736   47745   47760       1   47739   47736   47745   47763       1
   47739   47748  -47766   47754       1   47736   47739   47748   47766       1
   47736   47742  -47754   47766       1   47736   47742   47757   47775       1
   47736   47745  -47760   47775       1   47736   47745   47760   47781       1
   47736   47745   47763   47784       1   47925   47913   47922   47931       1
   47925   47934  -47940   47931       1   47922   47913   47925   47934       1
   47922   47931  -47940   47934       1   47916   47922   47913   47925       1
   47916   47922   47931   47940       1   47913   47922   47931   47940       1
   47913   47925  -47934   47940       1   47907   47889   47904   47913       1
   47907   47916  -47922   47913       1   47907   47916   47922   47931       1
   47904   47889   47907   47916       1   47904   47913  -47922   47916       1
   47904   47913   47922   47931       1   47904   47913   47925   47934       1
   47892   47904   47889   47907       1   47892   47904   47913   47922       1
   47892   47904   47913   47925       1   47889   47904   47913   47922       1
   47889   47904   47913   47925       1   47889   47907  -47916   47922       1
   47883   47868   47889   47904       1   47883   47868   47889   47907       1
   47871   47853   47868   47883       1   47871   47853   47868   47889       1
   47871   47892  -47904   47889       1   47871   47892   47904   47913       1
   47868   47853   47871   47892       1   47868   47889  -47904   47892       1
   47868   47889   47904   47913       1   47868   47889   47907   47916       1
   47865   47850   47862   47874       1   47865   47883   47868   47889       1
   47862   47850   47865   47883       1   47853   47844   47847   47856       1
   47853   47844   47850   47862       1   47853   47844   47850   47865       1
   47853   47868  -47883   47865       1   47853   47868   47889   47904       1
   47853   47868   47889   47907       1   47853   47871  -47892   47904       1
   47850   47844   47847   47856       1   47850   47844   47853   47868       1
   47850   47844   47853   47871       1   47850   47862  -47874   47856       1
   47850   47865  -47883   47868       1   47847   47844   47850   47862       1
   47847   47844   47850   47865       1   47847   47844   47853   47868       1
   47847   47844   47853   47871       1   47847   47856  -47874   47862       1
   47844   47847   47856   47874       1   47844   47850  -47862   47874       1
   47844   47850   47865   47883       1   47844   47853  -47868   47883       1
   47844   47853   47868   47889       1   47844   47853   47871   47892       1
   48033   48021   48030   48039       1   48033   48042  -48048   48039       1
   48030   48021   48033   48042       1   48030   48039  -48048   48042       1
   48024   48030   48021   48033       1   48024   48030   48039   48048       1
   48021   48030   48039   48048       1   48021   48033  -48042   48048       1
   48015   47997   48012   48021       1   48015   48024  -48030   48021       1
   48015   48024   48030   48039       1   48012   47997   48015   48024       1
   48012   48021  -48030   48024       1   48012   48021   48030   48039       1
   48012   48021   48033   48042       1   48000   48012   47997   48015       1
   48000   48012   48021   48030       1   48000   48012   48021   48033       1
   47997   48012   48021   48030       1   47997   48012   48021   48033       1
   47997   48015  -48024   48030       1   47991   47976   47997   48012       1
   47991   47976   47997   48015       1   47979   47961   47976   47991       1
   47979   47961   47976   47997       1   47979   48000  -48012   47997       1
   47979   48000   48012   48021       1   47976   47961   47979   48000       1
   47976   47997  -48012   48000       1   47976   47997   48012   48021       1
   47976   47997   48015   48024       1   47973   47958   47970   47982       1
   47973   47991   47976   47997       1   47970   47958   47973   47991       1
   47961   47952   47955   47964       1   47961   47952   47958   47970       1
   47961   47952   47958   47973       1   47961   47976  -47991   47973       1
   47961   47976   47997   48012       1   47961   47976   47997   48015       1
   47961   47979  -48000   48012       1   47958   47952   47955   47964       1
   47958   47952   47961   47976       1   47958   47952   47961   47979       1
   47958   47970  -47982   47964       1   47958   47973  -47991   47976       1
   47955   47952   47958   47970       1   47955   47952   47958   47973       1
   47955   47952   47961   47976       1   47955   47952   47961   47979       1
   47955   47964  -47982   47970       1   47952   47955   47964   47982       1
   47952   47958  -47970   47982       1   47952   47958   47973   47991       1
   47952   47961  -47976   47991       1   47952   47961   47976   47997       1
   47952   47961   47979   48000       1   48141   48129   48138   48147       1
   48141   48150  -48156   48147       1   48138   48129   48141   48150       1
   48138   48147  -48156   48150       1   48132   48138   48129   48141       1
   48132   48138   48147   48156       1   48129   48138   48147   48156       1
   48129   48141  -48150   48156       1   48123   48105   48120   48129       1
   48123   48132  -48138   48129       1   48123   48132   48138   48147       1
   48120   48105   48123   48132       1   48120   48129  -48138   48132       1
   48120   48129   48138   48147       1   48120   48129   48141   48150       1
   48108   48120   48105   48123       1   48108   48120   48129   48138       1
   48108   48120   48129   48141       1   48105   48120   48129   48138       1
   48105   48120   48129   48141       1   48105   48123  -48132   48138       1
   48099   48084   48105   48120       1   48099   48084   48105   48123       1
   48087   48069   48084   48099       1   48087   48069   48084   48105       1
   48087   48108  -48120   48105       1   48087   48108   48120   48129       1
   48084   48069   48087   48108       1   48084   48105  -48120   48108       1
   48084   48105   48120   48129       1   48084   48105   48123   48132       1
   48081   48066   48078   48090       1   48081   48099   48084   48105       1
   48078   48066   48081   48099       1   48069   48060   48063   48072       1
   48069   48060   48066   48078       1   48069   48060   48066   48081       1
   48069   48084  -48099   48081       1   48069   48084   48105   48120       1
   48069   48084   48105   48123       1   48069   48087  -48108   48120       1
   48066   48060   48063   48072       1   48066   48060   48069   48084       1
   48066   48060   48069   48087       1   48066   48078  -48090   48072       1
   48066   48081  -48099   48084       1   48063   48060   48066   48078       1
   48063   48060   48066   48081       1   48063   48060   48069   48084       1
   48063   48060   48069   48087       1   48063   48072  -48090   48078       1
   48060   48063   48072   48090       1   48060   48066  -48078   48090       1
   48060   48066   48081   48099       1   48060   48069  -48084   48099       1
   48060   48069   48084   48105       1   48060   48069   48087   48108       1
   48249   48237   48246   48255       1   48249   48258  -48264   48255       1
   48246   48237   48249   48258       1   48246   48255  -48264   48258       1
   48240   48246   48237   48249       1   48240   48246   48255   48264       1
   48237   48246   48255   48264       1   48237   48249  -48258   48264       1
   48231   48213   48228   48237       1   48231   48240  -48246   48237       1
   48231   48240   48246   48255       1   48228   48213   48231   48240       1
   48228   48237  -48246   48240       1   48228   48237   48246   48255       1
   48228   48237   48249   48258       1   48216   48228   48213   48231       1
   48216   48228   48237   48246       1   48216   48228   48237   48249       1
   48213   48228   48237   48246       1   48213   48228   48237   48249       1
   48213   48231  -48240   48246       1   48207   48192   48213   48228       1
   48207   48192   48213   48231       1   48195   48177   48192   48207       1
   48195   48177   48192   48213       1   48195   48216  -48228   48213       1
   48195   48216   48228   48237       1   48192   48177   48195   48216       1
   48192   48213  -48228   48216       1   48192   48213   48228   48237       1
   48192   48213   48231   48240       1   48189   48174   48186   48198       1
   48189   48207   48192   48213       1   48186   48174   48189   48207       1
   48177   48168   48171   48180       1   48177   48168   48174   48186       1
   48177   48168   48174   48189       1   48177   48192  -48207   48189       1
   48177   48192   48213   48228       1   48177   48192   48213   48231       1
   48177   48195  -48216   48228       1   48174   48168   48171   48180       1
   48174   48168   48177   48192       1   48174   48168   48177   48195       1
   48174   48186  -48198   48180       1   48174   48189  -48207   48192       1
   48171   48168   48174   48186       1   48171   48168   48174   48189       1
   48171   48168   48177   48192       1   48171   48168   48177   48195       1
   48171   48180  -48198   48186       1   48168   48171   48180   48198       1
   48168   48174  -48186   48198       1   48168   48174   48189   48207       1
   48168   48177  -48192   48207       1   48168   48177   48192   48213       1
   48168   48177   48195   48216       1   48357   48345   48354   48363       1
   48357   48366  -48372   48363       1   48354   48345   48357   48366       1
   48354   48363  -48372   48366       1   48348   48354   48345   48357       1
   48348   48354   48363   48372       1   48345   48354   48363   48372       1
   48345   48357  -48366   48372       1   48339   48321   48336   48345       1
   48339   48348  -48354   48345       1   48339   48348   48354   48363       1
   48336   48321   48339   48348       1   48336   48345  -48354   48348       1
   48336   48345   48354   48363       1   48336   48345   48357   48366       1
   48324   48336   48321   48339       1   48324   48336   48345   48354       1
   48324   48336   48345   48357       1   48321   48336   48345   48354       1
   48321   48336   48345   48357       1   48321   48339  -48348   48354       1
   48315   48300   48321   48336       1   48315   48300   48321   48339       1
   48303   48285   48300   48315       1   48303   48285   48300   48321       1
   48303   48324  -48336   48321       1   48303   48324   48336   48345       1
   48300   48285   48303   48324       1   48300   48321  -48336   48324       1
   48300   48321   48336   48345       1   48300   48321   48339   48348       1
   48297   48282   48294   48306       1   48297   48315   48300   48321       1
   48294   48282   48297   48315       1   48285   48276   48279   48288       1
   48285   48276   48282   48294       1   48285   48276   48282   48297       1
   48285   48300  -48315   48297       1   48285   48300   48321   48336       1
   48285   48300   48321   48339       1   48285   48303  -48324   48336       1
   48282   48276   48279   48288       1   48282   48276   48285   48300       1
   48282   48276   48285   48303       1   48282   48294  -48306   48288       1
   48282   48297  -48315   48300       1   48279   48276   48282   48294       1
   48279   48276   48282   48297       1   48279   48276   48285   48300       1
   48279   48276   48285   48303       1   48279   48288  -48306   48294       1
   48276   48279   48288   48306       1   48276   48282  -48294   48306       1
   48276   48282   48297   48315       1   48276   48285  -48300   48315       1
   48276   48285   48300   48321       1   48276   48285   48303   48324       1
   48465   48453   48462   48471       1   48465   48474  -48480   48471       1
   48462   48453   48465   48474       1   48462   48471  -48480   48474       1
   48456   48462   48453   48465       1   48456   48462   48471   48480       1
   48453   48462   48471   48480       1   48453   48465  -48474   48480       1
   48447   48429   48444   48453       1   48447   48456  -48462   48453       1
   48447   48456   48462   48471       1   48444   48429   48447   48456       1
   48444   48453  -48462   48456       1   48444   48453   48462   48471       1
   48444   48453   48465   48474       1   48432   48444   48429   48447       1
   48432   48444   48453   48462       1   48432   48444   48453   48465       1
   48429   48444   48453   48462       1   48429   48444   48453   48465       1
   48429   48447  -48456   48462       1   48423   48408   48429   48444       1
   48423   48408   48429   48447       1   48411   48393   48408   48423       1
   48411   48393   48408   48429       1   48411   48432  -48444   48429       1
   48411   48432   48444   48453       1   48408   48393   48411   48432       1
   48408   48429  -48444   48432       1   48408   48429   48444   48453       1
   48408   48429   48447   48456       1   48405   48390   48402   48414       1
   48405   48423   48408   48429       1   48402   48390   48405   48423       1
   48393   48384   48387   48396       1   48393   48384   48390   48402       1
   48393   48384   48390   48405       1   48393   48408  -48423   48405       1
   48393   48408   48429   48444       1   48393   48408   48429   48447       1
   48393   48411  -48432   48444       1   48390   48384   48387   48396       1
   48390   48384   48393   48408       1   48390   48384   48393   48411       1
   48390   48402  -48414   48396       1   48390   48405  -48423   48408       1
   48387   48384   48390   48402       1   48387   48384   48390   48405       1
   48387   48384   48393   48408       1   48387   48384   48393   48411       1
   48387   48396  -48414   48402       1   48384   48387   48396   48414       1
   48384   48390  -48402   48414       1   48384   48390   48405   48423       1
   48384   48393  -48408   48423       1   48384   48393   48408   48429       1
   48384   48393   48411   48432       1   48573   48561   48570   48579       1
   48573   48582  -48588   48579       1   48570   48561   48573   48582       1
   48570   48579  -48588   48582       1   48564   48570   48561   48573       1
   48564   48570   48579   48588       1   48561   48570   48579   48588       1
   48561   48573  -48582   48588       1   48555   48537   48552   48561       1
   48555   48564  -48570   48561       1   48555   48564   48570   48579       1
   48552   48537   48555   48564       1   48552   48561  -48570   48564       1
   48552   48561   48570   48579       1   48552   48561   48573   48582       1
   48540   48552   48537   48555       1   48540   48552   48561   48570       1
   48540   48552   48561   48573       1   48537   48552   48561   48570       1
   48537   48552   48561   48573       1   48537   48555  -48564   48570       1
   48531   48516   48537   48552       1   48531   48516   48537   48555       1
   48519   48501   48516   48531       1   48519   48501   48516   48537       1
   48519   48540  -48552   48537       1   48519   48540   48552   48561       1
   48516   48501   48519   48540       1   48516   48537  -48552   48540       1
   48516   48537   48552   48561       1   48516   48537   48555   48564       1
   48513   48498   48510   48522       1   48513   48531   48516   48537       1
   48510   48498   48513   48531       1   48501   48492   48495   48504       1
   48501   48492   48498   48510       1   48501   48492   48498   48513       1
   48501   48516  -48531   48513       1   48501   48516   48537   48552       1
   48501   48516   48537   48555       1   48501   48519  -48540   48552       1
   48498   48492   48495   48504       1   48498   48492   48501   48516       1
   48498   48492   48501   48519       1   48498   48510  -48522   48504       1
   48498   48513  -48531   48516       1   48495   48492   48498   48510       1
   48495   48492   48498   48513       1   48495   48492   48501   48516       1
   48495   48492   48501   48519       1   48495   48504  -48522   48510       1
   48492   48495   48504   48522       1   48492   48498  -48510   48522       1
   48492   48498   48513   48531       1   48492   48501  -48516   48531       1
   48492   48501   48516   48537       1   48492   48501   48519   48540       1
   48681   48669   48678   48687       1   48681   48690  -48696   48687       1
   48678   48669   48681   48690       1   48678   48687  -48696   48690       1
   48672   48678   48669   48681       1   48672   48678   48687   48696       1
   48669   48678   48687   48696       1   48669   48681  -48690   48696       1
   48663   48645   48660   48669       1   48663   48672  -48678   48669       1
   48663   48672   48678   48687       1   48660   48645   48663   48672       1
   48660   48669  -48678   48672       1   48660   48669   48678   48687       1
   48660   48669   48681   48690       1   48648   48660   48645   48663       1
   48648   48660   48669   48678       1   48648   48660   48669   48681       1
   48645   48660   48669   48678       1   48645   48660   48669   48681       1
   48645   48663  -48672   48678       1   48639   48624   48645   48660       1
   48639   48624   48645   48663       1   48627   48609   48624   48639       1
   48627   48609   48624   48645       1   48627   48648  -48660   48645       1
   48627   48648   48660   48669       1   48624   48609   48627   48648       1
   48624   48645  -48660   48648       1   48624   48645   48660   48669       1
   48624   48645   48663   48672       1   48621   48606   48618   48630       1
   48621   48639   48624   48645       1   48618   48606   48621   48639       1
   48609   48600   48603   48612       1   48609   48600   48606   48618       1
   48609   48600   48606   48621       1   48609   48624  -48639   48621       1
   48609   48624   48645   48660       1   48609   48624   48645   48663       1
   48609   48627  -48648   48660       1   48606   48600   48603   48612       1
   48606   48600   48609   48624       1   48606   48600   48609   48627       1
   48606   48618  -48630   48612       1   48606   48621  -48639   48624       1
   48603   48600   48606   48618       1   48603   48600   48606   48621       1
   48603   48600   48609   48624       1   48603   48600   48609   48627       1
   48603   48612  -48630   48618       1   48600   48603   48612   48630       1
   48600   48606  -48618   48630       1   48600   48606   48621   48639       1
   48600   48609  -48624   48639       1   48600   48609   48624   48645       1
   48600   48609   48627   48648       1   48789   48777   48786   48795       1
   48789   48798  -48804   48795       1   48786   48777   48789   48798       1
   48786   48795  -48804   48798       1   48780   48786   48777   48789       1
   48780   48786   48795   48804       1   48777   48786   48795   48804       1
   48777   48789  -48798   48804       1   48771   48753   48768   48777       1
   48771   48780  -48786   48777       1   48771   48780   48786   48795       1
   48768   48753   48771   48780       1   48768   48777  -48786   48780       1
   48768   48777   48786   48795       1   48768   48777   48789   48798       1
   48756   48768   48753   48771       1   48756   48768   48777   48786       1
   48756   48768   48777   48789       1   48753   48768   48777   48786       1
   48753   48768   48777   48789       1   48753   48771  -48780   48786       1
   48747   48732   48753   48768       1   48747   48732   48753   48771       1
   48735   48717   48732   48747       1   48735   48717   48732   48753       1
   48735   48756  -48768   48753       1   48735   48756   48768   48777       1
   48732   48717   48735   48756       1   48732   48753  -48768   48756       1
   48732   48753   48768   48777       1   48732   48753   48771   48780       1
   48729   48714   48726   48738       1   48729   48747   48732   48753       1
   48726   48714   48729   48747       1   48717   48708   48711   48720       1
   48717   48708   48714   48726       1   48717   48708   48714   48729       1
   48717   48732  -48747   48729       1   48717   48732   48753   48768       1
   48717   48732   48753   48771       1   48717   48735  -48756   48768       1
   48714   48708   48711   48720       1   48714   48708   48717   48732       1
   48714   48708   48717   48735       1   48714   48726  -48738   48720       1
   48714   48729  -48747   48732       1   48711   48708   48714   48726       1
   48711   48708   48714   48729       1   48711   48708   48717   48732       1
   48711   48708   48717   48735       1   48711   48720  -48738   48726       1
   48708   48711   48720   48738       1   48708   48714  -48726   48738       1
   48708   48714   48729   48747       1   48708   48717  -48732   48747       1
   48708   48717   48732   48753       1   48708   48717   48735   48756       1
   48897   48885   48894   48903       1   48897   48906  -48912   48903       1
   48894   48885   48897   48906       1   48894   48903  -48912   48906       1
   48888   48894   48885   48897       1   48888   48894   48903   48912       1
   48885   48894   48903   48912       1   48885   48897  -48906   48912       1
   48879   48861   48876   48885       1   48879   48888  -48894   48885       1
   48879   48888   48894   48903       1   48876   48861   48879   48888       1
   48876   48885  -48894   48888       1   48876   48885   48894   48903       1
   48876   48885   48897   48906       1   48864   48876   48861   48879       1
   48864   48876   48885   48894       1   48864   48876   48885   48897       1
   48861   48876   48885   48894       1   48861   48876   48885   48897       1
   48861   48879  -48888   48894       1   48855   48840   48861   48876       1
   48855   48840   48861   48879       1   48843   48825   48840   48855       1
   48843   48825   48840   48861       1   48843   48864  -48876   48861       1
   48843   48864   48876   48885       1   48840   48825   48843   48864       1
   48840   48861  -48876   48864       1   48840   48861   48876   48885       1
   48840   48861   48879   48888       1   48837   48822   48834   48846       1
   48837   48855   48840   48861       1   48834   48822   48837   48855       1
   48825   48816   48819   48828       1   48825   48816   48822   48834       1
   48825   48816   48822   48837       1   48825   48840  -48855   48837       1
   48825   48840   48861   48876       1   48825   48840   48861   48879       1
   48825   48843  -48864   48876       1   48822   48816   48819   48828       1
   48822   48816   48825   48840       1   48822   48816   48825   48843       1
   48822   48834  -48846   48828       1   48822   48837  -48855   48840       1
   48819   48816   48822   48834       1   48819   48816   48822   48837       1
   48819   48816   48825   48840       1   48819   48816   48825   48843       1
   48819   48828  -48846   48834       1   48816   48819   48828   48846       1
   48816   48822  -48834   48846       1   48816   48822   48837   48855       1
   48816   48825  -48840   48855       1   48816   48825   48840   48861       1
   48816   48825   48843   48864       1   49005   48993   49002   49011       1
   49005   49014  -49020   49011       1   49002   48993   49005   49014       1
   49002   49011  -49020   49014       1   48996   49002   48993   49005       1
   48996   49002   49011   49020       1   48993   49002   49011   49020       1
   48993   49005  -49014   49020       1   48987   48969   48984   48993       1
   48987   48996  -49002   48993       1   48987   48996   49002   49011       1
   48984   48969   48987   48996       1   48984   48993  -49002   48996       1
   48984   48993   49002   49011       1   48984   48993   49005   49014       1
   48972   48984   48969   48987       1   48972   48984   48993   49002       1
   48972   48984   48993   49005       1   48969   48984   48993   49002       1
   48969   48984   48993   49005       1   48969   48987  -48996   49002       1
   48963   48948   48969   48984       1   48963   48948   48969   48987       1
   48951   48933   48948   48963       1   48951   48933   48948   48969       1
   48951   48972  -48984   48969       1   48951   48972   48984   48993       1
   48948   48933   48951   48972       1   48948   48969  -48984   48972       1
   48948   48969   48984   48993       1   48948   48969   48987   48996       1
   48945   48930   48942   48954       1   48945   48963   48948   48969       1
   48942   48930   48945   48963       1   48933   48924   48927   48936       1
   48933   48924   48930   48942       1   48933   48924   48930   48945       1
   48933   48948  -48963   48945       1   48933   48948   48969   48984       1
   48933   48948   48969   48987       1   48933   48951  -48972   48984       1
   48930   48924   48927   48936       1   48930   48924   48933   48948       1
   48930   48924   48933   48951       1   48930   48942  -48954   48936       1
   48930   48945  -48963   48948       1   48927   48924   48930   48942       1
   48927   48924   48930   48945       1   48927   48924   48933   48948       1
   48927   48924   48933   48951       1   48927   48936  -48954   48942       1
   48924   48927   48936   48954       1   48924   48930  -48942   48954       1
   48924   48930   48945   48963       1   48924   48933  -48948   48963       1
   48924   48933   48948   48969       1   48924   48933   48951   48972       1
   49113   49101   49110   49119       1   49113   49122  -49128   49119       1
   49110   49101   49113   49122       1   49110   49119  -49128   49122       1
   49104   49110   49101   49113       1   49104   49110   49119   49128       1
   49101   49110   49119   49128       1   49101   49113  -49122   49128       1
   49095   49077   49092   49101       1   49095   49104  -49110   49101       1
   49095   49104   49110   49119       1   49092   49077   49095   49104       1
   49092   49101  -49110   49104       1   49092   49101   49110   49119       1
   49092   49101   49113   49122       1   49080   49092   49077   49095       1
   49080   49092   49101   49110       1   49080   49092   49101   49113       1
   49077   49092   49101   49110       1   49077   49092   49101   49113       1
   49077   49095  -49104   49110       1   49071   49056   49077   49092       1
   49071   49056   49077   49095       1   49059   49041   49056   49071       1
   49059   49041   49056   49077       1   49059   49080  -49092   49077       1
   49059   49080   49092   49101       1   49056   49041   49059   49080       1
   49056   49077  -49092   49080       1   49056   49077   49092   49101       1
   49056   49077   49095   49104       1   49053   49038   49050   49062       1
   49053   49071   49056   49077       1   49050   49038   49053   49071       1
   49041   49032   49035   49044       1   49041   49032   49038   49050       1
   49041   49032   49038   49053       1   49041   49056  -49071   49053       1
   49041   49056   49077   49092       1   49041   49056   49077   49095       1
   49041   49059  -49080   49092       1   49038   49032   49035   49044       1
   49038   49032   49041   49056       1   49038   49032   49041   49059       1
   49038   49050  -49062   49044       1   49038   49053  -49071   49056       1
   49035   49032   49038   49050       1   49035   49032   49038   49053       1
   49035   49032   49041   49056       1   49035   49032   49041   49059       1
   49035   49044  -49062   49050       1   49032   49035   49044   49062       1
   49032   49038  -49050   49062       1   49032   49038   49053   49071       1
   49032   49041  -49056   49071       1   49032   49041   49056   49077       1
   49032   49041   49059   49080       1   49221   49209   49218   49227       1
   49221   49230  -49236   49227       1   49218   49209   49221   49230       1
   49218   49227  -49236   49230       1   49212   49218   49209   49221       1
   49212   49218   49227   49236       1   49209   49218   49227   49236       1
   49209   49221  -49230   49236       1   49203   49185   49200   49209       1
   49203   49212  -49218   49209       1   49203   49212   49218   49227       1
   49200   49185   49203   49212       1   49200   49209  -49218   49212       1
   49200   49209   49218   49227       1   49200   49209   49221   49230       1
   49188   49200   49185   49203       1   49188   49200   49209   49218       1
   49188   49200   49209   49221       1   49185   49200   49209   49218       1
   49185   49200   49209   49221       1   49185   49203  -49212   49218       1
   49179   49164   49185   49200       1   49179   49164   49185   49203       1
   49167   49149   49164   49179       1   49167   49149   49164   49185       1
   49167   49188  -49200   49185       1   49167   49188   49200   49209       1
   49164   49149   49167   49188       1   49164   49185  -49200   49188       1
   49164   49185   49200   49209       1   49164   49185   49203   49212       1
   49161   49146   49158   49170       1   49161   49179   49164   49185       1
   49158   49146   49161   49179       1   49149   49140   49143   49152       1
   49149   49140   49146   49158       1   49149   49140   49146   49161       1
   49149   49164  -49179   49161       1   49149   49164   49185   49200       1
   49149   49164   49185   49203       1   49149   49167  -49188   49200       1
   49146   49140   49143   49152       1   49146   49140   49149   49164       1
   49146   49140   49149   49167       1   49146   49158  -49170   49152       1
   49146   49161  -49179   49164       1   49143   49140   49146   49158       1
   49143   49140   49146   49161       1   49143   49140   49149   49164       1
   49143   49140   49149   49167       1   49143   49152  -49170   49158       1
   49140   49143   49152   49170       1   49140   49146  -49158   49170       1
   49140   49146   49161   49179       1   49140   49149  -49164   49179       1
   49140   49149   49164   49185       1   49140   49149   49167   49188       1
   49329   49317   49326   49335       1   49329   49338  -49344   49335       1
   49326   49317   49329   49338       1   49326   49335  -49344   49338       1
   49320   49326   49317   49329       1   49320   49326   49335   49344       1
   49317   49326   49335   49344       1   49317   49329  -49338   49344       1
   49311   49293   49308   49317       1   49311   49320  -49326   49317       1
   49311   49320   49326   49335       1   49308   49293   49311   49320       1
   49308   49317  -49326   49320       1   49308   49317   49326   49335       1
   49308   49317   49329   49338       1   49296   49308   49293   49311       1
   49296   49308   49317   49326       1   49296   49308   49317   49329       1
   49293   49308   49317   49326       1   49293   49308   49317   49329       1
   49293   49311  -49320   49326       1   49287   49272   49293   49308       1
   49287   49272   49293   49311       1   49275   49257   49272   49287       1
   49275   49257   49272   49293       1   49275   49296  -49308   49293       1
   49275   49296   49308   49317       1   49272   49257   49275   49296       1
   49272   49293  -49308   49296       1   49272   49293   49308   49317       1
   49272   49293   49311   49320       1   49269   49254   49266   49278       1
   49269   49287   49272   49293       1   49266   49254   49269   49287       1
   49257   49248   49251   49260       1   49257   49248   49254   49266       1
   49257   49248   49254   49269       1   49257   49272  -49287   49269       1
   49257   49272   49293   49308       1   49257   49272   49293   49311       1
   49257   49275  -49296   49308       1   49254   49248   49251   49260       1
   49254   49248   49257   49272       1   49254   49248   49257   49275       1
   49254   49266  -49278   49260       1   49254   49269  -49287   49272       1
   49251   49248   49254   49266       1   49251   49248   49254   49269       1
   49251   49248   49257   49272       1   49251   49248   49257   49275       1
   49251   49260  -49278   49266       1   49248   49251   49260   49278       1
   49248   49254  -49266   49278       1   49248   49254   49269   49287       1
   49248   49257  -49272   49287       1   49248   49257   49272   49293       1
   49248   49257   49275   49296       1   49437   49425   49434   49443       1
   49437   49446  -49452   49443       1   49434   49425   49437   49446       1
   49434   49443  -49452   49446       1   49428   49434   49425   49437       1
   49428   49434   49443   49452       1   49425   49434   49443   49452       1
   49425   49437  -49446   49452       1   49419   49401   49416   49425       1
   49419   49428  -49434   49425       1   49419   49428   49434   49443       1
   49416   49401   49419   49428       1   49416   49425  -49434   49428       1
   49416   49425   49434   49443       1   49416   49425   49437   49446       1
   49404   49416   49401   49419       1   49404   49416   49425   49434       1
   49404   49416   49425   49437       1   49401   49416   49425   49434       1
   49401   49416   49425   49437       1   49401   49419  -49428   49434       1
   49395   49380   49401   49416       1   49395   49380   49401   49419       1
   49383   49365   49380   49395       1   49383   49365   49380   49401       1
   49383   49404  -49416   49401       1   49383   49404   49416   49425       1
   49380   49365   49383   49404       1   49380   49401  -49416   49404       1
   49380   49401   49416   49425       1   49380   49401   49419   49428       1
   49377   49362   49374   49386       1   49377   49395   49380   49401       1
   49374   49362   49377   49395       1   49365   49356   49359   49368       1
   49365   49356   49362   49374       1   49365   49356   49362   49377       1
   49365   49380  -49395   49377       1   49365   49380   49401   49416       1
   49365   49380   49401   49419       1   49365   49383  -49404   49416       1
   49362   49356   49359   49368       1   49362   49356   49365   49380       1
   49362   49356   49365   49383       1   49362   49374  -49386   49368       1
   49362   49377  -49395   49380       1   49359   49356   49362   49374       1
   49359   49356   49362   49377       1   49359   49356   49365   49380       1
   49359   49356   49365   49383       1   49359   49368  -49386   49374       1
   49356   49359   49368   49386       1   49356   49362  -49374   49386       1
   49356   49362   49377   49395       1   49356   49365  -49380   49395       1
   49356   49365   49380   49401       1   49356   49365   49383   49404       1
   49545   49533   49542   49551       1   49545   49554  -49560   49551       1
   49542   49533   49545   49554       1   49542   49551  -49560   49554       1
   49536   49542   49533   49545       1   49536   49542   49551   49560       1
   49533   49542   49551   49560       1   49533   49545  -49554   49560       1
   49527   49509   49524   49533       1   49527   49536  -49542   49533       1
   49527   49536   49542   49551       1   49524   49509   49527   49536       1
   49524   49533  -49542   49536       1   49524   49533   49542   49551       1
   49524   49533   49545   49554       1   49512   49524   49509   49527       1
   49512   49524   49533   49542       1   49512   49524   49533   49545       1
   49509   49524   49533   49542       1   49509   49524   49533   49545       1
   49509   49527  -49536   49542       1   49503   49488   49509   49524       1
   49503   49488   49509   49527       1   49491   49473   49488   49503       1
   49491   49473   49488   49509       1   49491   49512  -49524   49509       1
   49491   49512   49524   49533       1   49488   49473   49491   49512       1
   49488   49509  -49524   49512       1   49488   49509   49524   49533       1
   49488   49509   49527   49536       1   49485   49470   49482   49494       1
   49485   49503   49488   49509       1   49482   49470   49485   49503       1
   49473   49464   49467   49476       1   49473   49464   49470   49482       1
   49473   49464   49470   49485       1   49473   49488  -49503   49485       1
   49473   49488   49509   49524       1   49473   49488   49509   49527       1
   49473   49491  -49512   49524       1   49470   49464   49467   49476       1
   49470   49464   49473   49488       1   49470   49464   49473   49491       1
   49470   49482  -49494   49476       1   49470   49485  -49503   49488       1
   49467   49464   49470   49482       1   49467   49464   49470   49485       1
   49467   49464   49473   49488       1   49467   49464   49473   49491       1
   49467   49476  -49494   49482       1   49464   49467   49476   49494       1
   49464   49470  -49482   49494       1   49464   49470   49485   49503       1
   49464   49473  -49488   49503       1   49464   49473   49488   49509       1
   49464   49473   49491   49512       1   49653   49641   49650   49659       1
   49653   49662  -49668   49659       1   49650   49641   49653   49662       1
   49650   49659  -49668   49662       1   49644   49650   49641   49653       1
   49644   49650   49659   49668       1   49641   49650   49659   49668       1
   49641   49653  -49662   49668       1   49635   49617   49632   49641       1
   49635   49644  -49650   49641       1   49635   49644   49650   49659       1
   49632   49617   49635   49644       1   49632   49641  -49650   49644       1
   49632   49641   49650   49659       1   49632   49641   49653   49662       1
   49620   49632   49617   49635       1   49620   49632   49641   49650       1
   49620   49632   49641   49653       1   49617   49632   49641   49650       1
   49617   49632   49641   49653       1   49617   49635  -49644   49650       1
   49611   49596   49617   49632       1   49611   49596   49617   49635       1
   49599   49581   49596   49611       1   49599   49581   49596   49617       1
   49599   49620  -49632   49617       1   49599   49620   49632   49641       1
   49596   49581   49599   49620       1   49596   49617  -49632   49620       1
   49596   49617   49632   49641       1   49596   49617   49635   49644       1
   49593   49578   49590   49602       1   49593   49611   49596   49617       1
   49590   49578   49593   49611       1   49581   49572   49575   49584       1
   49581   49572   49578   49590       1   49581   49572   49578   49593       1
   49581   49596  -49611   49593       1   49581   49596   49617   49632       1
   49581   49596   49617   49635       1   49581   49599  -49620   49632       1
   49578   49572   49575   49584       1   49578   49572   49581   49596       1
   49578   49572   49581   49599       1   49578   49590  -49602   49584       1
   49578   49593  -49611   49596       1   49575   49572   49578   49590       1
   49575   49572   49578   49593       1   49575   49572   49581   49596       1
   49575   49572   49581   49599       1   49575   49584  -49602   49590       1
   49572   49575   49584   49602       1   49572   49578  -49590   49602       1
   49572   49578   49593   49611       1   49572   49581  -49596   49611       1
   49572   49581   49596   49617       1   49572   49581   49599   49620       1
   49761   49749   49758   49767       1   49761   49770  -49776   49767       1
   49758   49749   49761   49770       1   49758   49767  -49776   49770       1
   49752   49758   49749   49761       1   49752   49758   49767   49776       1
   49749   49758   49767   49776       1   49749   49761  -49770   49776       1
   49743   49725   49740   49749       1   49743   49752  -49758   49749       1
   49743   49752   49758   49767       1   49740   49725   49743   49752       1
   49740   49749  -49758   49752       1   49740   49749   49758   49767       1
   49740   49749   49761   49770       1   49728   49740   49725   49743       1
   49728   49740   49749   49758       1   49728   49740   49749   49761       1
   49725   49740   49749   49758       1   49725   49740   49749   49761       1
   49725   49743  -49752   49758       1   49719   49704   49725   49740       1
   49719   49704   49725   49743       1   49707   49689   49704   49719       1
   49707   49689   49704   49725       1   49707   49728  -49740   49725       1
   49707   49728   49740   49749       1   49704   49689   49707   49728       1
   49704   49725  -49740   49728       1   49704   49725   49740   49749       1
   49704   49725   49743   49752       1   49701   49686   49698   49710       1
   49701   49719   49704   49725       1   49698   49686   49701   49719       1
   49689   49680   49683   49692       1   49689   49680   49686   49698       1
   49689   49680   49686   49701       1   49689   49704  -49719   49701       1
   49689   49704   49725   49740       1   49689   49704   49725   49743       1
   49689   49707  -49728   49740       1   49686   49680   49683   49692       1
   49686   49680   49689   49704       1   49686   49680   49689   49707       1
   49686   49698  -49710   49692       1   49686   49701  -49719   49704       1
   49683   49680   49686   49698       1   49683   49680   49686   49701       1
   49683   49680   49689   49704       1   49683   49680   49689   49707       1
   49683   49692  -49710   49698       1   49680   49683   49692   49710       1
   49680   49686  -49698   49710       1   49680   49686   49701   49719       1
   49680   49689  -49704   49719       1   49680   49689   49704   49725       1
   49680   49689   49707   49728       1   49869   49857   49866   49875       1
   49869   49878  -49884   49875       1   49866   49857   49869   49878       1
   49866   49875  -49884   49878       1   49860   49866   49857   49869       1
   49860   49866   49875   49884       1   49857   49866   49875   49884       1
   49857   49869  -49878   49884       1   49851   49833   49848   49857       1
   49851   49860  -49866   49857       1   49851   49860   49866   49875       1
   49848   49833   49851   49860       1   49848   49857  -49866   49860       1
   49848   49857   49866   49875       1   49848   49857   49869   49878       1
   49836   49848   49833   49851       1   49836   49848   49857   49866       1
   49836   49848   49857   49869       1   49833   49848   49857   49866       1
   49833   49848   49857   49869       1   49833   49851  -49860   49866       1
   49827   49812   49833   49848       1   49827   49812   49833   49851       1
   49815   49797   49812   49827       1   49815   49797   49812   49833       1
   49815   49836  -49848   49833       1   49815   49836   49848   49857       1
   49812   49797   49815   49836       1   49812   49833  -49848   49836       1
   49812   49833   49848   49857       1   49812   49833   49851   49860       1
   49809   49794   49806   49818       1   49809   49827   49812   49833       1
   49806   49794   49809   49827       1   49797   49788   49791   49800       1
   49797   49788   49794   49806       1   49797   49788   49794   49809       1
   49797   49812  -49827   49809       1   49797   49812   49833   49848       1
   49797   49812   49833   49851       1   49797   49815  -49836   49848       1
   49794   49788   49791   49800       1   49794   49788   49797   49812       1
   49794   49788   49797   49815       1   49794   49806  -49818   49800       1
   49794   49809  -49827   49812       1   49791   49788   49794   49806       1
   49791   49788   49794   49809       1   49791   49788   49797   49812       1
   49791   49788   49797   49815       1   49791   49800  -49818   49806       1
   49788   49791   49800   49818       1   49788   49794  -49806   49818       1
   49788   49794   49809   49827       1   49788   49797  -49812   49827       1
   49788   49797   49812   49833       1   49788   49797   49815   49836       1
   49977   49965   49974   49983       1   49977   49986  -49992   49983       1
   49974   49965   49977   49986       1   49974   49983  -49992   49986       1
   49968   49974   49965   49977       1   49968   49974   49983   49992       1
   49965   49974   49983   49992       1   49965   49977  -49986   49992       1
   49959   49941   49956   49965       1   49959   49968  -49974   49965       1
   49959   49968   49974   49983       1   49956   49941   49959   49968       1
   49956   49965  -49974   49968       1   49956   49965   49974   49983       1
   49956   49965   49977   49986       1   49944   49956   49941   49959       1
   49944   49956   49965   49974       1   49944   49956   49965   49977       1
   49941   49956   49965   49974       1   49941   49956   49965   49977       1
   49941   49959  -49968   49974       1   49935   49920   49941   49956       1
   49935   49920   49941   49959       1   49923   49905   49920   49935       1
   49923   49905   49920   49941       1   49923   49944  -49956   49941       1
   49923   49944   49956   49965       1   49920   49905   49923   49944       1
   49920   49941  -49956   49944       1   49920   49941   49956   49965       1
   49920   49941   49959   49968       1   49917   49902   49914   49926       1
   49917   49935   49920   49941       1   49914   49902   49917   49935       1
   49905   49896   49899   49908       1   49905   49896   49902   49914       1
   49905   49896   49902   49917       1   49905   49920  -49935   49917       1
   49905   49920   49941   49956       1   49905   49920   49941   49959       1
   49905   49923  -49944   49956       1   49902   49896   49899   49908       1
   49902   49896   49905   49920       1   49902   49896   49905   49923       1
   49902   49914  -49926   49908       1   49902   49917  -49935   49920       1
   49899   49896   49902   49914       1   49899   49896   49902   49917       1
   49899   49896   49905   49920       1   49899   49896   49905   49923       1
   49899   49908  -49926   49914       1   49896   49899   49908   49926       1
   49896   49902  -49914   49926       1   49896   49902   49917   49935       1
   49896   49905  -49920   49935       1   49896   49905   49920   49941       1
   49896   49905   49923   49944       1   50085   50073   50082   50091       1
   50085   50094  -50100   50091       1   50082   50073   50085   50094       1
   50082   50091  -50100   50094       1   50076   50082   50073   50085       1
   50076   50082   50091   50100       1   50073   50082   50091   50100       1
   50073   50085  -50094   50100       1   50067   50049   50064   50073       1
   50067   50076  -50082   50073       1   50067   50076   50082   50091       1
   50064   50049   50067   50076       1   50064   50073  -50082   50076       1
   50064   50073   50082   50091       1   50064   50073   50085   50094       1
   50052   50064   50049   50067       1   50052   50064   50073   50082       1
   50052   50064   50073   50085       1   50049   50064   50073   50082       1
   50049   50064   50073   50085       1   50049   50067  -50076   50082       1
   50043   50028   50049   50064       1   50043   50028   50049   50067       1
   50031   50013   50028   50043       1   50031   50013   50028   50049       1
   50031   50052  -50064   50049       1   50031   50052   50064   50073       1
   50028   50013   50031   50052       1   50028   50049  -50064   50052       1
   50028   50049   50064   50073       1   50028   50049   50067   50076       1
   50025   50010   50022   50034       1   50025   50043   50028   50049       1
   50022   50010   50025   50043       1   50013   50004   50007   50016       1
   50013   50004   50010   50022       1   50013   50004   50010   50025       1
   50013   50028  -50043   50025       1   50013   50028   50049   50064       1
   50013   50028   50049   50067       1   50013   50031  -50052   50064       1
   50010   50004   50007   50016       1   50010   50004   50013   50028       1
   50010   50004   50013   50031       1   50010   50022  -50034   50016       1
   50010   50025  -50043   50028       1   50007   50004   50010   50022       1
   50007   50004   50010   50025       1   50007   50004   50013   50028       1
   50007   50004   50013   50031       1   50007   50016  -50034   50022       1
   50004   50007   50016   50034       1   50004   50010  -50022   50034       1
   50004   50010   50025   50043       1   50004   50013  -50028   50043       1
   50004   50013   50028   50049       1   50004   50013   50031   50052       1
   50193   50181   50190   50199       1   50193   50202  -50208   50199       1
   50190   50181   50193   50202       1   50190   50199  -50208   50202       1
   50184   50190   50181   50193       1   50184   50190   50199   50208       1
   50181   50190   50199   50208       1   50181   50193  -50202   50208       1
   50175   50157   50172   50181       1   50175   50184  -50190   50181       1
   50175   50184   50190   50199       1   50172   50157   50175   50184       1
   50172   50181  -50190   50184       1   50172   50181   50190   50199       1
   50172   50181   50193   50202       1   50160   50172   50157   50175       1
   50160   50172   50181   50190       1   50160   50172   50181   50193       1
   50157   50172   50181   50190       1   50157   50172   50181   50193       1
   50157   50175  -50184   50190       1   50151   50136   50157   50172       1
   50151   50136   50157   50175       1   50139   50121   50136   50151       1
   50139   50121   50136   50157       1   50139   50160  -50172   50157       1
   50139   50160   50172   50181       1   50136   50121   50139   50160       1
   50136   50157  -50172   50160       1   50136   50157   50172   50181       1
   50136   50157   50175   50184       1   50133   50118   50130   50142       1
   50133   50151   50136   50157       1   50130   50118   50133   50151       1
   50121   50112   50115   50124       1   50121   50112   50118   50130       1
   50121   50112   50118   50133       1   50121   50136  -50151   50133       1
   50121   50136   50157   50172       1   50121   50136   50157   50175       1
   50121   50139  -50160   50172       1   50118   50112   50115   50124       1
   50118   50112   50121   50136       1   50118   50112   50121   50139       1
   50118   50130  -50142   50124       1   50118   50133  -50151   50136       1
   50115   50112   50118   50130       1   50115   50112   50118   50133       1
   50115   50112   50121   50136       1   50115   50112   50121   50139       1
   50115   50124  -50142   50130       1   50112   50115   50124   50142       1
   50112   50118  -50130   50142       1   50112   50118   50133   50151       1
   50112   50121  -50136   50151       1   50112   50121   50136   50157       1
   50112   50121   50139   50160       1   50301   50289   50298   50307       1
   50301   50310  -50316   50307       1   50298   50289   50301   50310       1
   50298   50307  -50316   50310       1   50292   50298   50289   50301       1
   50292   50298   50307   50316       1   50289   50298   50307   50316       1
   50289   50301  -50310   50316       1   50283   50265   50280   50289       1
   50283   50292  -50298   50289       1   50283   50292   50298   50307       1
   50280   50265   50283   50292       1   50280   50289  -50298   50292       1
   50280   50289   50298   50307       1   50280   50289   50301   50310       1
   50268   50280   50265   50283       1   50268   50280   50289   50298       1
   50268   50280   50289   50301       1   50265   50280   50289   50298       1
   50265   50280   50289   50301       1   50265   50283  -50292   50298       1
   50259   50244   50265   50280       1   50259   50244   50265   50283       1
   50247   50229   50244   50259       1   50247   50229   50244   50265       1
   50247   50268  -50280   50265       1   50247   50268   50280   50289       1
   50244   50229   50247   50268       1   50244   50265  -50280   50268       1
   50244   50265   50280   50289       1   50244   50265   50283   50292       1
   50241   50226   50238   50250       1   50241   50259   50244   50265       1
   50238   50226   50241   50259       1   50229   50220   50223   50232       1
   50229   50220   50226   50238       1   50229   50220   50226   50241       1
   50229   50244  -50259   50241       1   50229   50244   50265   50280       1
   50229   50244   50265   50283       1   50229   50247  -50268   50280       1
   50226   50220   50223   50232       1   50226   50220   50229   50244       1
   50226   50220   50229   50247       1   50226   50238  -50250   50232       1
   50226   50241  -50259   50244       1   50223   50220   50226   50238       1
   50223   50220   50226   50241       1   50223   50220   50229   50244       1
   50223   50220   50229   50247       1   50223   50232  -50250   50238       1
   50220   50223   50232   50250       1   50220   50226  -50238   50250       1
   50220   50226   50241   50259       1   50220   50229  -50244   50259       1
   50220   50229   50244   50265       1   50220   50229   50247   50268       1
   50409   50397   50406   50415       1   50409   50418  -50424   50415       1
   50406   50397   50409   50418       1   50406   50415  -50424   50418       1
   50400   50406   50397   50409       1   50400   50406   50415   50424       1
   50397   50406   50415   50424       1   50397   50409  -50418   50424       1
   50391   50373   50388   50397       1   50391   50400  -50406   50397       1
   50391   50400   50406   50415       1   50388   50373   50391   50400       1
   50388   50397  -50406   50400       1   50388   50397   50406   50415       1
   50388   50397   50409   50418       1   50376   50388   50373   50391       1
   50376   50388   50397   50406       1   50376   50388   50397   50409       1
   50373   50388   50397   50406       1   50373   50388   50397   50409       1
   50373   50391  -50400   50406       1   50367   50352   50373   50388       1
   50367   50352   50373   50391       1   50355   50337   50352   50367       1
   50355   50337   50352   50373       1   50355   50376  -50388   50373       1
   50355   50376   50388   50397       1   50352   50337   50355   50376       1
   50352   50373  -50388   50376       1   50352   50373   50388   50397       1
   50352   50373   50391   50400       1   50349   50334   50346   50358       1
   50349   50367   50352   50373       1   50346   50334   50349   50367       1
   50337   50328   50331   50340       1   50337   50328   50334   50346       1
   50337   50328   50334   50349       1   50337   50352  -50367   50349       1
   50337   50352   50373   50388       1   50337   50352   50373   50391       1
   50337   50355  -50376   50388       1   50334   50328   50331   50340       1
   50334   50328   50337   50352       1   50334   50328   50337   50355       1
   50334   50346  -50358   50340       1   50334   50349  -50367   50352       1
   50331   50328   50334   50346       1   50331   50328   50334   50349       1
   50331   50328   50337   50352       1   50331   50328   50337   50355       1
   50331   50340  -50358   50346       1   50328   50331   50340   50358       1
   50328   50334  -50346   50358       1   50328   50334   50349   50367       1
   50328   50337  -50352   50367       1   50328   50337   50352   50373       1
   50328   50337   50355   50376       1   50517   50505   50514   50523       1
   50517   50526  -50532   50523       1   50514   50505   50517   50526       1
   50514   50523  -50532   50526       1   50508   50514   50505   50517       1
   50508   50514   50523   50532       1   50505   50514   50523   50532       1
   50505   50517  -50526   50532       1   50499   50481   50496   50505       1
   50499   50508  -50514   50505       1   50499   50508   50514   50523       1
   50496   50481   50499   50508       1   50496   50505  -50514   50508       1
   50496   50505   50514   50523       1   50496   50505   50517   50526       1
   50484   50496   50481   50499       1   50484   50496   50505   50514       1
   50484   50496   50505   50517       1   50481   50496   50505   50514       1
   50481   50496   50505   50517       1   50481   50499  -50508   50514       1
   50475   50460   50481   50496       1   50475   50460   50481   50499       1
   50463   50445   50460   50475       1   50463   50445   50460   50481       1
   50463   50484  -50496   50481       1   50463   50484   50496   50505       1
   50460   50445   50463   50484       1   50460   50481  -50496   50484       1
   50460   50481   50496   50505       1   50460   50481   50499   50508       1
   50457   50442   50454   50466       1   50457   50475   50460   50481       1
   50454   50442   50457   50475       1   50445   50436   50439   50448       1
   50445   50436   50442   50454       1   50445   50436   50442   50457       1
   50445   50460  -50475   50457       1   50445   50460   50481   50496       1
   50445   50460   50481   50499       1   50445   50463  -50484   50496       1
   50442   50436   50439   50448       1   50442   50436   50445   50460       1
   50442   50436   50445   50463       1   50442   50454  -50466   50448       1
   50442   50457  -50475   50460       1   50439   50436   50442   50454       1
   50439   50436   50442   50457       1   50439   50436   50445   50460       1
   50439   50436   50445   50463       1   50439   50448  -50466   50454       1
   50436   50439   50448   50466       1   50436   50442  -50454   50466       1
   50436   50442   50457   50475       1   50436   50445  -50460   50475       1
   50436   50445   50460   50481       1   50436   50445   50463   50484       1
   50625   50613   50622   50631       1   50625   50634  -50640   50631       1
   50622   50613   50625   50634       1   50622   50631  -50640   50634       1
   50616   50622   50613   50625       1   50616   50622   50631   50640       1
   50613   50622   50631   50640       1   50613   50625  -50634   50640       1
   50607   50589   50604   50613       1   50607   50616  -50622   50613       1
   50607   50616   50622   50631       1   50604   50589   50607   50616       1
   50604   50613  -50622   50616       1   50604   50613   50622   50631       1
   50604   50613   50625   50634       1   50592   50604   50589   50607       1
   50592   50604   50613   50622       1   50592   50604   50613   50625       1
   50589   50604   50613   50622       1   50589   50604   50613   50625       1
   50589   50607  -50616   50622       1   50583   50568   50589   50604       1
   50583   50568   50589   50607       1   50571   50553   50568   50583       1
   50571   50553   50568   50589       1   50571   50592  -50604   50589       1
   50571   50592   50604   50613       1   50568   50553   50571   50592       1
   50568   50589  -50604   50592       1   50568   50589   50604   50613       1
   50568   50589   50607   50616       1   50565   50550   50562   50574       1
   50565   50583   50568   50589       1   50562   50550   50565   50583       1
   50553   50544   50547   50556       1   50553   50544   50550   50562       1
   50553   50544   50550   50565       1   50553   50568  -50583   50565       1
   50553   50568   50589   50604       1   50553   50568   50589   50607       1
   50553   50571  -50592   50604       1   50550   50544   50547   50556       1
   50550   50544   50553   50568       1   50550   50544   50553   50571       1
   50550   50562  -50574   50556       1   50550   50565  -50583   50568       1
   50547   50544   50550   50562       1   50547   50544   50550   50565       1
   50547   50544   50553   50568       1   50547   50544   50553   50571       1
   50547   50556  -50574   50562       1   50544   50547   50556   50574       1
   50544   50550  -50562   50574       1   50544   50550   50565   50583       1
   50544   50553  -50568   50583       1   50544   50553   50568   50589       1
   50544   50553   50571   50592       1   50733   50721   50730   50739       1
   50733   50742  -50748   50739       1   50730   50721   50733   50742       1
   50730   50739  -50748   50742       1   50724   50730   50721   50733       1
   50724   50730   50739   50748       1   50721   50730   50739   50748       1
   50721   50733  -50742   50748       1   50715   50697   50712   50721       1
   50715   50724  -50730   50721       1   50715   50724   50730   50739       1
   50712   50697   50715   50724       1   50712   50721  -50730   50724       1
   50712   50721   50730   50739       1   50712   50721   50733   50742       1
   50700   50712   50697   50715       1   50700   50712   50721   50730       1
   50700   50712   50721   50733       1   50697   50712   50721   50730       1
   50697   50712   50721   50733       1   50697   50715  -50724   50730       1
   50691   50676   50697   50712       1   50691   50676   50697   50715       1
   50679   50661   50676   50691       1   50679   50661   50676   50697       1
   50679   50700  -50712   50697       1   50679   50700   50712   50721       1
   50676   50661   50679   50700       1   50676   50697  -50712   50700       1
   50676   50697   50712   50721       1   50676   50697   50715   50724       1
   50673   50658   50670   50682       1   50673   50691   50676   50697       1
   50670   50658   50673   50691       1   50661   50652   50655   50664       1
   50661   50652   50658   50670       1   50661   50652   50658   50673       1
   50661   50676  -50691   50673       1   50661   50676   50697   50712       1
   50661   50676   50697   50715       1   50661   50679  -50700   50712       1
   50658   50652   50655   50664       1   50658   50652   50661   50676       1
   50658   50652   50661   50679       1   50658   50670  -50682   50664       1
   50658   50673  -50691   50676       1   50655   50652   50658   50670       1
   50655   50652   50658   50673       1   50655   50652   50661   50676       1
   50655   50652   50661   50679       1   50655   50664  -50682   50670       1
   50652   50655   50664   50682       1   50652   50658  -50670   50682       1
   50652   50658   50673   50691       1   50652   50661  -50676   50691       1
   50652   50661   50676   50697       1   50652   50661   50679   50700       1
   50841   50829   50838   50847       1   50841   50850  -50856   50847       1
   50838   50829   50841   50850       1   50838   50847  -50856   50850       1
   50832   50838   50829   50841       1   50832   50838   50847   50856       1
   50829   50838   50847   50856       1   50829   50841  -50850   50856       1
   50823   50805   50820   50829       1   50823   50832  -50838   50829       1
   50823   50832   50838   50847       1   50820   50805   50823   50832       1
   50820   50829  -50838   50832       1   50820   50829   50838   50847       1
   50820   50829   50841   50850       1   50808   50820   50805   50823       1
   50808   50820   50829   50838       1   50808   50820   50829   50841       1
   50805   50820   50829   50838       1   50805   50820   50829   50841       1
   50805   50823  -50832   50838       1   50799   50784   50805   50820       1
   50799   50784   50805   50823       1   50787   50769   50784   50799       1
   50787   50769   50784   50805       1   50787   50808  -50820   50805       1
   50787   50808   50820   50829       1   50784   50769   50787   50808       1
   50784   50805  -50820   50808       1   50784   50805   50820   50829       1
   50784   50805   50823   50832       1   50781   50766   50778   50790       1
   50781   50799   50784   50805       1   50778   50766   50781   50799       1
   50769   50760   50763   50772       1   50769   50760   50766   50778       1
   50769   50760   50766   50781       1   50769   50784  -50799   50781       1
   50769   50784   50805   50820       1   50769   50784   50805   50823       1
   50769   50787  -50808   50820       1   50766   50760   50763   50772       1
   50766   50760   50769   50784       1   50766   50760   50769   50787       1
   50766   50778  -50790   50772       1   50766   50781  -50799   50784       1
   50763   50760   50766   50778       1   50763   50760   50766   50781       1
   50763   50760   50769   50784       1   50763   50760   50769   50787       1
   50763   50772  -50790   50778       1   50760   50763   50772   50790       1
   50760   50766  -50778   50790       1   50760   50766   50781   50799       1
   50760   50769  -50784   50799       1   50760   50769   50784   50805       1
   50760   50769   50787   50808       1   50949   50937   50946   50955       1
   50949   50958  -50964   50955       1   50946   50937   50949   50958       1
   50946   50955  -50964   50958       1   50940   50946   50937   50949       1
   50940   50946   50955   50964       1   50937   50946   50955   50964       1
   50937   50949  -50958   50964       1   50931   50913   50928   50937       1
   50931   50940  -50946   50937       1   50931   50940   50946   50955       1
   50928   50913   50931   50940       1   50928   50937  -50946   50940       1
   50928   50937   50946   50955       1   50928   50937   50949   50958       1
   50916   50928   50913   50931       1   50916   50928   50937   50946       1
   50916   50928   50937   50949       1   50913   50928   50937   50946       1
   50913   50928   50937   50949       1   50913   50931  -50940   50946       1
   50907   50892   50913   50928       1   50907   50892   50913   50931       1
   50895   50877   50892   50907       1   50895   50877   50892   50913       1
   50895   50916  -50928   50913       1   50895   50916   50928   50937       1
   50892   50877   50895   50916       1   50892   50913  -50928   50916       1
   50892   50913   50928   50937       1   50892   50913   50931   50940       1
   50889   50874   50886   50898       1   50889   50907   50892   50913       1
   50886   50874   50889   50907       1   50877   50868   50871   50880       1
   50877   50868   50874   50886       1   50877   50868   50874   50889       1
   50877   50892  -50907   50889       1   50877   50892   50913   50928       1
   50877   50892   50913   50931       1   50877   50895  -50916   50928       1
   50874   50868   50871   50880       1   50874   50868   50877   50892       1
   50874   50868   50877   50895       1   50874   50886  -50898   50880       1
   50874   50889  -50907   50892       1   50871   50868   50874   50886       1
   50871   50868   50874   50889       1   50871   50868   50877   50892       1
   50871   50868   50877   50895       1   50871   50880  -50898   50886       1
   50868   50871   50880   50898       1   50868   50874  -50886   50898       1
   50868   50874   50889   50907       1   50868   50877  -50892   50907       1
   50868   50877   50892   50913       1   50868   50877   50895   50916       1
   51057   51045   51054   51063       1   51057   51066  -51072   51063       1
   51054   51045   51057   51066       1   51054   51063  -51072   51066       1
   51048   51054   51045   51057       1   51048   51054   51063   51072       1
   51045   51054   51063   51072       1   51045   51057  -51066   51072       1
   51039   51021   51036   51045       1   51039   51048  -51054   51045       1
   51039   51048   51054   51063       1   51036   51021   51039   51048       1
   51036   51045  -51054   51048       1   51036   51045   51054   51063       1
   51036   51045   51057   51066       1   51024   51036   51021   51039       1
   51024   51036   51045   51054       1   51024   51036   51045   51057       1
   51021   51036   51045   51054       1   51021   51036   51045   51057       1
   51021   51039  -51048   51054       1   51015   51000   51021   51036       1
   51015   51000   51021   51039       1   51003   50985   51000   51015       1
   51003   50985   51000   51021       1   51003   51024  -51036   51021       1
   51003   51024   51036   51045       1   51000   50985   51003   51024       1
   51000   51021  -51036   51024       1   51000   51021   51036   51045       1
   51000   51021   51039   51048       1   50997   50982   50994   51006       1
   50997   51015   51000   51021       1   50994   50982   50997   51015       1
   50985   50976   50979   50988       1   50985   50976   50982   50994       1
   50985   50976   50982   50997       1   50985   51000  -51015   50997       1
   50985   51000   51021   51036       1   50985   51000   51021   51039       1
   50985   51003  -51024   51036       1   50982   50976   50979   50988       1
   50982   50976   50985   51000       1   50982   50976   50985   51003       1
   50982   50994  -51006   50988       1   50982   50997  -51015   51000       1
   50979   50976   50982   50994       1   50979   50976   50982   50997       1
   50979   50976   50985   51000       1   50979   50976   50985   51003       1
   50979   50988  -51006   50994       1   50976   50979   50988   51006       1
   50976   50982  -50994   51006       1   50976   50982   50997   51015       1
   50976   50985  -51000   51015       1   50976   50985   51000   51021       1
   50976   50985   51003   51024       1   51165   51153   51162   51171       1
   51165   51174  -51180   51171       1   51162   51153   51165   51174       1
   51162   51171  -51180   51174       1   51156   51162   51153   51165       1
   51156   51162   51171   51180       1   51153   51162   51171   51180       1
   51153   51165  -51174   51180       1   51147   51129   51144   51153       1
   51147   51156  -51162   51153       1   51147   51156   51162   51171       1
   51144   51129   51147   51156       1   51144   51153  -51162   51156       1
   51144   51153   51162   51171       1   51144   51153   51165   51174       1
   51132   51144   51129   51147       1   51132   51144   51153   51162       1
   51132   51144   51153   51165       1   51129   51144   51153   51162       1
   51129   51144   51153   51165       1   51129   51147  -51156   51162       1
   51123   51108   51129   51144       1   51123   51108   51129   51147       1
   51111   51093   51108   51123       1   51111   51093   51108   51129       1
   51111   51132  -51144   51129       1   51111   51132   51144   51153       1
   51108   51093   51111   51132       1   51108   51129  -51144   51132       1
   51108   51129   51144   51153       1   51108   51129   51147   51156       1
   51105   51090   51102   51114       1   51105   51123   51108   51129       1
   51102   51090   51105   51123       1   51093   51084   51087   51096       1
   51093   51084   51090   51102       1   51093   51084   51090   51105       1
   51093   51108  -51123   51105       1   51093   51108   51129   51144       1
   51093   51108   51129   51147       1   51093   51111  -51132   51144       1
   51090   51084   51087   51096       1   51090   51084   51093   51108       1
   51090   51084   51093   51111       1   51090   51102  -51114   51096       1
   51090   51105  -51123   51108       1   51087   51084   51090   51102       1
   51087   51084   51090   51105       1   51087   51084   51093   51108       1
   51087   51084   51093   51111       1   51087   51096  -51114   51102       1
   51084   51087   51096   51114       1   51084   51090  -51102   51114       1
   51084   51090   51105   51123       1   51084   51093  -51108   51123       1
   51084   51093   51108   51129       1   51084   51093   51111   51132       1
   51273   51261   51270   51279       1   51273   51282  -51288   51279       1
   51270   51261   51273   51282       1   51270   51279  -51288   51282       1
   51264   51270   51261   51273       1   51264   51270   51279   51288       1
   51261   51270   51279   51288       1   51261   51273  -51282   51288       1
   51255   51237   51252   51261       1   51255   51264  -51270   51261       1
   51255   51264   51270   51279       1   51252   51237   51255   51264       1
   51252   51261  -51270   51264       1   51252   51261   51270   51279       1
   51252   51261   51273   51282       1   51240   51252   51237   51255       1
   51240   51252   51261   51270       1   51240   51252   51261   51273       1
   51237   51252   51261   51270       1   51237   51252   51261   51273       1
   51237   51255  -51264   51270       1   51231   51216   51237   51252       1
   51231   51216   51237   51255       1   51219   51201   51216   51231       1
   51219   51201   51216   51237       1   51219   51240  -51252   51237       1
   51219   51240   51252   51261       1   51216   51201   51219   51240       1
   51216   51237  -51252   51240       1   51216   51237   51252   51261       1
   51216   51237   51255   51264       1   51213   51198   51210   51222       1
   51213   51231   51216   51237       1   51210   51198   51213   51231       1
   51201   51192   51195   51204       1   51201   51192   51198   51210       1
   51201   51192   51198   51213       1   51201   51216  -51231   51213       1
   51201   51216   51237   51252       1   51201   51216   51237   51255       1
   51201   51219  -51240   51252       1   51198   51192   51195   51204       1
   51198   51192   51201   51216       1   51198   51192   51201   51219       1
   51198   51210  -51222   51204       1   51198   51213  -51231   51216       1
   51195   51192   51198   51210       1   51195   51192   51198   51213       1
   51195   51192   51201   51216       1   51195   51192   51201   51219       1
   51195   51204  -51222   51210       1   51192   51195   51204   51222       1
   51192   51198  -51210   51222       1   51192   51198   51213   51231       1
   51192   51201  -51216   51231       1   51192   51201   51216   51237       1
   51192   51201   51219   51240       1   51381   51369   51378   51387       1
   51381   51390  -51396   51387       1   51378   51369   51381   51390       1
   51378   51387  -51396   51390       1   51372   51378   51369   51381       1
   51372   51378   51387   51396       1   51369   51378   51387   51396       1
   51369   51381  -51390   51396       1   51363   51345   51360   51369       1
   51363   51372  -51378   51369       1   51363   51372   51378   51387       1
   51360   51345   51363   51372       1   51360   51369  -51378   51372       1
   51360   51369   51378   51387       1   51360   51369   51381   51390       1
   51348   51360   51345   51363       1   51348   51360   51369   51378       1
   51348   51360   51369   51381       1   51345   51360   51369   51378       1
   51345   51360   51369   51381       1   51345   51363  -51372   51378       1
   51339   51324   51345   51360       1   51339   51324   51345   51363       1
   51327   51309   51324   51339       1   51327   51309   51324   51345       1
   51327   51348  -51360   51345       1   51327   51348   51360   51369       1
   51324   51309   51327   51348       1   51324   51345  -51360   51348       1
   51324   51345   51360   51369       1   51324   51345   51363   51372       1
   51321   51306   51318   51330       1   51321   51339   51324   51345       1
   51318   51306   51321   51339       1   51309   51300   51303   51312       1
   51309   51300   51306   51318       1   51309   51300   51306   51321       1
   51309   51324  -51339   51321       1   51309   51324   51345   51360       1
   51309   51324   51345   51363       1   51309   51327  -51348   51360       1
   51306   51300   51303   51312       1   51306   51300   51309   51324       1
   51306   51300   51309   51327       1   51306   51318  -51330   51312       1
   51306   51321  -51339   51324       1   51303   51300   51306   51318       1
   51303   51300   51306   51321       1   51303   51300   51309   51324       1
   51303   51300   51309   51327       1   51303   51312  -51330   51318       1
   51300   51303   51312   51330       1   51300   51306  -51318   51330       1
   51300   51306   51321   51339       1   51300   51309  -51324   51339       1
   51300   51309   51324   51345       1   51300   51309   51327   51348       1
   51489   51477   51486   51495       1   51489   51498  -51504   51495       1
   51486   51477   51489   51498       1   51486   51495  -51504   51498       1
   51480   51486   51477   51489       1   51480   51486   51495   51504       1
   51477   51486   51495   51504       1   51477   51489  -51498   51504       1
   51471   51453   51468   51477       1   51471   51480  -51486   51477       1
   51471   51480   51486   51495       1   51468   51453   51471   51480       1
   51468   51477  -51486   51480       1   51468   51477   51486   51495       1
   51468   51477   51489   51498       1   51456   51468   51453   51471       1
   51456   51468   51477   51486       1   51456   51468   51477   51489       1
   51453   51468   51477   51486       1   51453   51468   51477   51489       1
   51453   51471  -51480   51486       1   51447   51432   51453   51468       1
   51447   51432   51453   51471       1   51435   51417   51432   51447       1
   51435   51417   51432   51453       1   51435   51456  -51468   51453       1
   51435   51456   51468   51477       1   51432   51417   51435   51456       1
   51432   51453  -51468   51456       1   51432   51453   51468   51477       1
   51432   51453   51471   51480       1   51429   51414   51426   51438       1
   51429   51447   51432   51453       1   51426   51414   51429   51447       1
   51417   51408   51411   51420       1   51417   51408   51414   51426       1
   51417   51408   51414   51429       1   51417   51432  -51447   51429       1
   51417   51432   51453   51468       1   51417   51432   51453   51471       1
   51417   51435  -51456   51468       1   51414   51408   51411   51420       1
   51414   51408   51417   51432       1   51414   51408   51417   51435       1
   51414   51426  -51438   51420       1   51414   51429  -51447   51432       1
   51411   51408   51414   51426       1   51411   51408   51414   51429       1
   51411   51408   51417   51432       1   51411   51408   51417   51435       1
   51411   51420  -51438   51426       1   51408   51411   51420   51438       1
   51408   51414  -51426   51438       1   51408   51414   51429   51447       1
   51408   51417  -51432   51447       1   51408   51417   51432   51453       1
   51408   51417   51435   51456       1   51597   51585   51594   51603       1
   51597   51606  -51612   51603       1   51594   51585   51597   51606       1
   51594   51603  -51612   51606       1   51588   51594   51585   51597       1
   51588   51594   51603   51612       1   51585   51594   51603   51612       1
   51585   51597  -51606   51612       1   51579   51561   51576   51585       1
   51579   51588  -51594   51585       1   51579   51588   51594   51603       1
   51576   51561   51579   51588       1   51576   51585  -51594   51588       1
   51576   51585   51594   51603       1   51576   51585   51597   51606       1
   51564   51576   51561   51579       1   51564   51576   51585   51594       1
   51564   51576   51585   51597       1   51561   51576   51585   51594       1
   51561   51576   51585   51597       1   51561   51579  -51588   51594       1
   51555   51540   51561   51576       1   51555   51540   51561   51579       1
   51543   51525   51540   51555       1   51543   51525   51540   51561       1
   51543   51564  -51576   51561       1   51543   51564   51576   51585       1
   51540   51525   51543   51564       1   51540   51561  -51576   51564       1
   51540   51561   51576   51585       1   51540   51561   51579   51588       1
   51537   51522   51534   51546       1   51537   51555   51540   51561       1
   51534   51522   51537   51555       1   51525   51516   51519   51528       1
   51525   51516   51522   51534       1   51525   51516   51522   51537       1
   51525   51540  -51555   51537       1   51525   51540   51561   51576       1
   51525   51540   51561   51579       1   51525   51543  -51564   51576       1
   51522   51516   51519   51528       1   51522   51516   51525   51540       1
   51522   51516   51525   51543       1   51522   51534  -51546   51528       1
   51522   51537  -51555   51540       1   51519   51516   51522   51534       1
   51519   51516   51522   51537       1   51519   51516   51525   51540       1
   51519   51516   51525   51543       1   51519   51528  -51546   51534       1
   51516   51519   51528   51546       1   51516   51522  -51534   51546       1
   51516   51522   51537   51555       1   51516   51525  -51540   51555       1
   51516   51525   51540   51561       1   51516   51525   51543   51564       1
   51705   51693   51702   51711       1   51705   51714  -51720   51711       1
   51702   51693   51705   51714       1   51702   51711  -51720   51714       1
   51696   51702   51693   51705       1   51696   51702   51711   51720       1
   51693   51702   51711   51720       1   51693   51705  -51714   51720       1
   51687   51669   51684   51693       1   51687   51696  -51702   51693       1
   51687   51696   51702   51711       1   51684   51669   51687   51696       1
   51684   51693  -51702   51696       1   51684   51693   51702   51711       1
   51684   51693   51705   51714       1   51672   51684   51669   51687       1
   51672   51684   51693   51702       1   51672   51684   51693   51705       1
   51669   51684   51693   51702       1   51669   51684   51693   51705       1
   51669   51687  -51696   51702       1   51663   51648   51669   51684       1
   51663   51648   51669   51687       1   51651   51633   51648   51663       1
   51651   51633   51648   51669       1   51651   51672  -51684   51669       1
   51651   51672   51684   51693       1   51648   51633   51651   51672       1
   51648   51669  -51684   51672       1   51648   51669   51684   51693       1
   51648   51669   51687   51696       1   51645   51630   51642   51654       1
   51645   51663   51648   51669       1   51642   51630   51645   51663       1
   51633   51624   51627   51636       1   51633   51624   51630   51642       1
   51633   51624   51630   51645       1   51633   51648  -51663   51645       1
   51633   51648   51669   51684       1   51633   51648   51669   51687       1
   51633   51651  -51672   51684       1   51630   51624   51627   51636       1
   51630   51624   51633   51648       1   51630   51624   51633   51651       1
   51630   51642  -51654   51636       1   51630   51645  -51663   51648       1
   51627   51624   51630   51642       1   51627   51624   51630   51645       1
   51627   51624   51633   51648       1   51627   51624   51633   51651       1
   51627   51636  -51654   51642       1   51624   51627   51636   51654       1
   51624   51630  -51642   51654       1   51624   51630   51645   51663       1
   51624   51633  -51648   51663       1   51624   51633   51648   51669       1
   51624   51633   51651   51672       1   51813   51801   51810   51819       1
   51813   51822  -51828   51819       1   51810   51801   51813   51822       1
   51810   51819  -51828   51822       1   51804   51810   51801   51813       1
   51804   51810   51819   51828       1   51801   51810   51819   51828       1
   51801   51813  -51822   51828       1   51795   51777   51792   51801       1
   51795   51804  -51810   51801       1   51795   51804   51810   51819       1
   51792   51777   51795   51804       1   51792   51801  -51810   51804       1
   51792   51801   51810   51819       1   51792   51801   51813   51822       1
   51780   51792   51777   51795       1   51780   51792   51801   51810       1
   51780   51792   51801   51813       1   51777   51792   51801   51810       1
   51777   51792   51801   51813       1   51777   51795  -51804   51810       1
   51771   51756   51777   51792       1   51771   51756   51777   51795       1
   51759   51741   51756   51771       1   51759   51741   51756   51777       1
   51759   51780  -51792   51777       1   51759   51780   51792   51801       1
   51756   51741   51759   51780       1   51756   51777  -51792   51780       1
   51756   51777   51792   51801       1   51756   51777   51795   51804       1
   51753   51738   51750   51762       1   51753   51771   51756   51777       1
   51750   51738   51753   51771       1   51741   51732   51735   51744       1
   51741   51732   51738   51750       1   51741   51732   51738   51753       1
   51741   51756  -51771   51753       1   51741   51756   51777   51792       1
   51741   51756   51777   51795       1   51741   51759  -51780   51792       1
   51738   51732   51735   51744       1   51738   51732   51741   51756       1
   51738   51732   51741   51759       1   51738   51750  -51762   51744       1
   51738   51753  -51771   51756       1   51735   51732   51738   51750       1
   51735   51732   51738   51753       1   51735   51732   51741   51756       1
   51735   51732   51741   51759       1   51735   51744  -51762   51750       1
   51732   51735   51744   51762       1   51732   51738  -51750   51762       1
   51732   51738   51753   51771       1   51732   51741  -51756   51771       1
   51732   51741   51756   51777       1   51732   51741   51759   51780       1
   51921   51909   51918   51927       1   51921   51930  -51936   51927       1
   51918   51909   51921   51930       1   51918   51927  -51936   51930       1
   51912   51918   51909   51921       1   51912   51918   51927   51936       1
   51909   51918   51927   51936       1   51909   51921  -51930   51936       1
   51903   51885   51900   51909       1   51903   51912  -51918   51909       1
   51903   51912   51918   51927       1   51900   51885   51903   51912       1
   51900   51909  -51918   51912       1   51900   51909   51918   51927       1
   51900   51909   51921   51930       1   51888   51900   51885   51903       1
   51888   51900   51909   51918       1   51888   51900   51909   51921       1
   51885   51900   51909   51918       1   51885   51900   51909   51921       1
   51885   51903  -51912   51918       1   51879   51864   51885   51900       1
   51879   51864   51885   51903       1   51867   51849   51864   51879       1
   51867   51849   51864   51885       1   51867   51888  -51900   51885       1
   51867   51888   51900   51909       1   51864   51849   51867   51888       1
   51864   51885  -51900   51888       1   51864   51885   51900   51909       1
   51864   51885   51903   51912       1   51861   51846   51858   51870       1
   51861   51879   51864   51885       1   51858   51846   51861   51879       1
   51849   51840   51843   51852       1   51849   51840   51846   51858       1
   51849   51840   51846   51861       1   51849   51864  -51879   51861       1
   51849   51864   51885   51900       1   51849   51864   51885   51903       1
   51849   51867  -51888   51900       1   51846   51840   51843   51852       1
   51846   51840   51849   51864       1   51846   51840   51849   51867       1
   51846   51858  -51870   51852       1   51846   51861  -51879   51864       1
   51843   51840   51846   51858       1   51843   51840   51846   51861       1
   51843   51840   51849   51864       1   51843   51840   51849   51867       1
   51843   51852  -51870   51858       1   51840   51843   51852   51870       1
   51840   51846  -51858   51870       1   51840   51846   51861   51879       1
   51840   51849  -51864   51879       1   51840   51849   51864   51885       1
   51840   51849   51867   51888       1   52029   52017   52026   52035       1
   52029   52038  -52044   52035       1   52026   52017   52029   52038       1
   52026   52035  -52044   52038       1   52020   52026   52017   52029       1
   52020   52026   52035   52044       1   52017   52026   52035   52044       1
   52017   52029  -52038   52044       1   52011   51993   52008   52017       1
   52011   52020  -52026   52017       1   52011   52020   52026   52035       1
   52008   51993   52011   52020       1   52008   52017  -52026   52020       1
   52008   52017   52026   52035       1   52008   52017   52029   52038       1
   51996   52008   51993   52011       1   51996   52008   52017   52026       1
   51996   52008   52017   52029       1   51993   52008   52017   52026       1
   51993   52008   52017   52029       1   51993   52011  -52020   52026       1
   51987   51972   51993   52008       1   51987   51972   51993   52011       1
   51975   51957   51972   51987       1   51975   51957   51972   51993       1
   51975   51996  -52008   51993       1   51975   51996   52008   52017       1
   51972   51957   51975   51996       1   51972   51993  -52008   51996       1
   51972   51993   52008   52017       1   51972   51993   52011   52020       1
   51969   51954   51966   51978       1   51969   51987   51972   51993       1
   51966   51954   51969   51987       1   51957   51948   51951   51960       1
   51957   51948   51954   51966       1   51957   51948   51954   51969       1
   51957   51972  -51987   51969       1   51957   51972   51993   52008       1
   51957   51972   51993   52011       1   51957   51975  -51996   52008       1
   51954   51948   51951   51960       1   51954   51948   51957   51972       1
   51954   51948   51957   51975       1   51954   51966  -51978   51960       1
   51954   51969  -51987   51972       1   51951   51948   51954   51966       1
   51951   51948   51954   51969       1   51951   51948   51957   51972       1
   51951   51948   51957   51975       1   51951   51960  -51978   51966       1
   51948   51951   51960   51978       1   51948   51954  -51966   51978       1
   51948   51954   51969   51987       1   51948   51957  -51972   51987       1
   51948   51957   51972   51993       1   51948   51957   51975   51996       1
   52137   52125   52134   52143       1   52137   52146  -52152   52143       1
   52134   52125   52137   52146       1   52134   52143  -52152   52146       1
   52128   52134   52125   52137       1   52128   52134   52143   52152       1
   52125   52134   52143   52152       1   52125   52137  -52146   52152       1
   52119   52101   52116   52125       1   52119   52128  -52134   52125       1
   52119   52128   52134   52143       1   52116   52101   52119   52128       1
   52116   52125  -52134   52128       1   52116   52125   52134   52143       1
   52116   52125   52137   52146       1   52104   52116   52101   52119       1
   52104   52116   52125   52134       1   52104   52116   52125   52137       1
   52101   52116   52125   52134       1   52101   52116   52125   52137       1
   52101   52119  -52128   52134       1   52095   52080   52101   52116       1
   52095   52080   52101   52119       1   52083   52065   52080   52095       1
   52083   52065   52080   52101       1   52083   52104  -52116   52101       1
   52083   52104   52116   52125       1   52080   52065   52083   52104       1
   52080   52101  -52116   52104       1   52080   52101   52116   52125       1
   52080   52101   52119   52128       1   52077   52062   52074   52086       1
   52077   52095   52080   52101       1   52074   52062   52077   52095       1
   52065   52056   52059   52068       1   52065   52056   52062   52074       1
   52065   52056   52062   52077       1   52065   52080  -52095   52077       1
   52065   52080   52101   52116       1   52065   52080   52101   52119       1
   52065   52083  -52104   52116       1   52062   52056   52059   52068       1
   52062   52056   52065   52080       1   52062   52056   52065   52083       1
   52062   52074  -52086   52068       1   52062   52077  -52095   52080       1
   52059   52056   52062   52074       1   52059   52056   52062   52077       1
   52059   52056   52065   52080       1   52059   52056   52065   52083       1
   52059   52068  -52086   52074       1   52056   52059   52068   52086       1
   52056   52062  -52074   52086       1   52056   52062   52077   52095       1
   52056   52065  -52080   52095       1   52056   52065   52080   52101       1
   52056   52065   52083   52104       1   52245   52233   52242   52251       1
   52245   52254  -52260   52251       1   52242   52233   52245   52254       1
   52242   52251  -52260   52254       1   52236   52242   52233   52245       1
   52236   52242   52251   52260       1   52233   52242   52251   52260       1
   52233   52245  -52254   52260       1   52227   52209   52224   52233       1
   52227   52236  -52242   52233       1   52227   52236   52242   52251       1
   52224   52209   52227   52236       1   52224   52233  -52242   52236       1
   52224   52233   52242   52251       1   52224   52233   52245   52254       1
   52212   52224   52209   52227       1   52212   52224   52233   52242       1
   52212   52224   52233   52245       1   52209   52224   52233   52242       1
   52209   52224   52233   52245       1   52209   52227  -52236   52242       1
   52203   52188   52209   52224       1   52203   52188   52209   52227       1
   52191   52173   52188   52203       1   52191   52173   52188   52209       1
   52191   52212  -52224   52209       1   52191   52212   52224   52233       1
   52188   52173   52191   52212       1   52188   52209  -52224   52212       1
   52188   52209   52224   52233       1   52188   52209   52227   52236       1
   52185   52170   52182   52194       1   52185   52203   52188   52209       1
   52182   52170   52185   52203       1   52173   52164   52167   52176       1
   52173   52164   52170   52182       1   52173   52164   52170   52185       1
   52173   52188  -52203   52185       1   52173   52188   52209   52224       1
   52173   52188   52209   52227       1   52173   52191  -52212   52224       1
   52170   52164   52167   52176       1   52170   52164   52173   52188       1
   52170   52164   52173   52191       1   52170   52182  -52194   52176       1
   52170   52185  -52203   52188       1   52167   52164   52170   52182       1
   52167   52164   52170   52185       1   52167   52164   52173   52188       1
   52167   52164   52173   52191       1   52167   52176  -52194   52182       1
   52164   52167   52176   52194       1   52164   52170  -52182   52194       1
   52164   52170   52185   52203       1   52164   52173  -52188   52203       1
   52164   52173   52188   52209       1   52164   52173   52191   52212       1
   52353   52341   52350   52359       1   52353   52362  -52368   52359       1
   52350   52341   52353   52362       1   52350   52359  -52368   52362       1
   52344   52350   52341   52353       1   52344   52350   52359   52368       1
   52341   52350   52359   52368       1   52341   52353  -52362   52368       1
   52335   52317   52332   52341       1   52335   52344  -52350   52341       1
   52335   52344   52350   52359       1   52332   52317   52335   52344       1
   52332   52341  -52350   52344       1   52332   52341   52350   52359       1
   52332   52341   52353   52362       1   52320   52332   52317   52335       1
   52320   52332   52341   52350       1   52320   52332   52341   52353       1
   52317   52332   52341   52350       1   52317   52332   52341   52353       1
   52317   52335  -52344   52350       1   52311   52296   52317   52332       1
   52311   52296   52317   52335       1   52299   52281   52296   52311       1
   52299   52281   52296   52317       1   52299   52320  -52332   52317       1
   52299   52320   52332   52341       1   52296   52281   52299   52320       1
   52296   52317  -52332   52320       1   52296   52317   52332   52341       1
   52296   52317   52335   52344       1   52293   52278   52290   52302       1
   52293   52311   52296   52317       1   52290   52278   52293   52311       1
   52281   52272   52275   52284       1   52281   52272   52278   52290       1
   52281   52272   52278   52293       1   52281   52296  -52311   52293       1
   52281   52296   52317   52332       1   52281   52296   52317   52335       1
   52281   52299  -52320   52332       1   52278   52272   52275   52284       1
   52278   52272   52281   52296       1   52278   52272   52281   52299       1
   52278   52290  -52302   52284       1   52278   52293  -52311   52296       1
   52275   52272   52278   52290       1   52275   52272   52278   52293       1
   52275   52272   52281   52296       1   52275   52272   52281   52299       1
   52275   52284  -52302   52290       1   52272   52275   52284   52302       1
   52272   52278  -52290   52302       1   52272   52278   52293   52311       1
   52272   52281  -52296   52311       1   52272   52281   52296   52317       1
   52272   52281   52299   52320       1   52461   52449   52458   52467       1
   52461   52470  -52476   52467       1   52458   52449   52461   52470       1
   52458   52467  -52476   52470       1   52452   52458   52449   52461       1
   52452   52458   52467   52476       1   52449   52458   52467   52476       1
   52449   52461  -52470   52476       1   52443   52425   52440   52449       1
   52443   52452  -52458   52449       1   52443   52452   52458   52467       1
   52440   52425   52443   52452       1   52440   52449  -52458   52452       1
   52440   52449   52458   52467       1   52440   52449   52461   52470       1
   52428   52440   52425   52443       1   52428   52440   52449   52458       1
   52428   52440   52449   52461       1   52425   52440   52449   52458       1
   52425   52440   52449   52461       1   52425   52443  -52452   52458       1
   52419   52404   52425   52440       1   52419   52404   52425   52443       1
   52407   52389   52404   52419       1   52407   52389   52404   52425       1
   52407   52428  -52440   52425       1   52407   52428   52440   52449       1
   52404   52389   52407   52428       1   52404   52425  -52440   52428       1
   52404   52425   52440   52449       1   52404   52425   52443   52452       1
   52401   52386   52398   52410       1   52401   52419   52404   52425       1
   52398   52386   52401   52419       1   52389   52380   52383   52392       1
   52389   52380   52386   52398       1   52389   52380   52386   52401       1
   52389   52404  -52419   52401       1   52389   52404   52425   52440       1
   52389   52404   52425   52443       1   52389   52407  -52428   52440       1
   52386   52380   52383   52392       1   52386   52380   52389   52404       1
   52386   52380   52389   52407       1   52386   52398  -52410   52392       1
   52386   52401  -52419   52404       1   52383   52380   52386   52398       1
   52383   52380   52386   52401       1   52383   52380   52389   52404       1
   52383   52380   52389   52407       1   52383   52392  -52410   52398       1
   52380   52383   52392   52410       1   52380   52386  -52398   52410       1
   52380   52386   52401   52419       1   52380   52389  -52404   52419       1
   52380   52389   52404   52425       1   52380   52389   52407   52428       1
   52569   52557   52566   52575       1   52569   52578  -52584   52575       1
   52566   52557   52569   52578       1   52566   52575  -52584   52578       1
   52560   52566   52557   52569       1   52560   52566   52575   52584       1
   52557   52566   52575   52584       1   52557   52569  -52578   52584       1
   52551   52533   52548   52557       1   52551   52560  -52566   52557       1
   52551   52560   52566   52575       1   52548   52533   52551   52560       1
   52548   52557  -52566   52560       1   52548   52557   52566   52575       1
   52548   52557   52569   52578       1   52536   52548   52533   52551       1
   52536   52548   52557   52566       1   52536   52548   52557   52569       1
   52533   52548   52557   52566       1   52533   52548   52557   52569       1
   52533   52551  -52560   52566       1   52527   52512   52533   52548       1
   52527   52512   52533   52551       1   52515   52497   52512   52527       1
   52515   52497   52512   52533       1   52515   52536  -52548   52533       1
   52515   52536   52548   52557       1   52512   52497   52515   52536       1
   52512   52533  -52548   52536       1   52512   52533   52548   52557       1
   52512   52533   52551   52560       1   52509   52494   52506   52518       1
   52509   52527   52512   52533       1   52506   52494   52509   52527       1
   52497   52488   52491   52500       1   52497   52488   52494   52506       1
   52497   52488   52494   52509       1   52497   52512  -52527   52509       1
   52497   52512   52533   52548       1   52497   52512   52533   52551       1
   52497   52515  -52536   52548       1   52494   52488   52491   52500       1
   52494   52488   52497   52512       1   52494   52488   52497   52515       1
   52494   52506  -52518   52500       1   52494   52509  -52527   52512       1
   52491   52488   52494   52506       1   52491   52488   52494   52509       1
   52491   52488   52497   52512       1   52491   52488   52497   52515       1
   52491   52500  -52518   52506       1   52488   52491   52500   52518       1
   52488   52494  -52506   52518       1   52488   52494   52509   52527       1
   52488   52497  -52512   52527       1   52488   52497   52512   52533       1
   52488   52497   52515   52536       1   52677   52665   52674   52683       1
   52677   52686  -52692   52683       1   52674   52665   52677   52686       1
   52674   52683  -52692   52686       1   52668   52674   52665   52677       1
   52668   52674   52683   52692       1   52665   52674   52683   52692       1
   52665   52677  -52686   52692       1   52659   52641   52656   52665       1
   52659   52668  -52674   52665       1   52659   52668   52674   52683       1
   52656   52641   52659   52668       1   52656   52665  -52674   52668       1
   52656   52665   52674   52683       1   52656   52665   52677   52686       1
   52644   52656   52641   52659       1   52644   52656   52665   52674       1
   52644   52656   52665   52677       1   52641   52656   52665   52674       1
   52641   52656   52665   52677       1   52641   52659  -52668   52674       1
   52635   52620   52641   52656       1   52635   52620   52641   52659       1
   52623   52605   52620   52635       1   52623   52605   52620   52641       1
   52623   52644  -52656   52641       1   52623   52644   52656   52665       1
   52620   52605   52623   52644       1   52620   52641  -52656   52644       1
   52620   52641   52656   52665       1   52620   52641   52659   52668       1
   52617   52602   52614   52626       1   52617   52635   52620   52641       1
   52614   52602   52617   52635       1   52605   52596   52599   52608       1
   52605   52596   52602   52614       1   52605   52596   52602   52617       1
   52605   52620  -52635   52617       1   52605   52620   52641   52656       1
   52605   52620   52641   52659       1   52605   52623  -52644   52656       1
   52602   52596   52599   52608       1   52602   52596   52605   52620       1
   52602   52596   52605   52623       1   52602   52614  -52626   52608       1
   52602   52617  -52635   52620       1   52599   52596   52602   52614       1
   52599   52596   52602   52617       1   52599   52596   52605   52620       1
   52599   52596   52605   52623       1   52599   52608  -52626   52614       1
   52596   52599   52608   52626       1   52596   52602  -52614   52626       1
   52596   52602   52617   52635       1   52596   52605  -52620   52635       1
   52596   52605   52620   52641       1   52596   52605   52623   52644       1
   52785   52773   52782   52791       1   52785   52794  -52800   52791       1
   52782   52773   52785   52794       1   52782   52791  -52800   52794       1
   52776   52782   52773   52785       1   52776   52782   52791   52800       1
   52773   52782   52791   52800       1   52773   52785  -52794   52800       1
   52767   52749   52764   52773       1   52767   52776  -52782   52773       1
   52767   52776   52782   52791       1   52764   52749   52767   52776       1
   52764   52773  -52782   52776       1   52764   52773   52782   52791       1
   52764   52773   52785   52794       1   52752   52764   52749   52767       1
   52752   52764   52773   52782       1   52752   52764   52773   52785       1
   52749   52764   52773   52782       1   52749   52764   52773   52785       1
   52749   52767  -52776   52782       1   52743   52728   52749   52764       1
   52743   52728   52749   52767       1   52731   52713   52728   52743       1
   52731   52713   52728   52749       1   52731   52752  -52764   52749       1
   52731   52752   52764   52773       1   52728   52713   52731   52752       1
   52728   52749  -52764   52752       1   52728   52749   52764   52773       1
   52728   52749   52767   52776       1   52725   52710   52722   52734       1
   52725   52743   52728   52749       1   52722   52710   52725   52743       1
   52713   52704   52707   52716       1   52713   52704   52710   52722       1
   52713   52704   52710   52725       1   52713   52728  -52743   52725       1
   52713   52728   52749   52764       1   52713   52728   52749   52767       1
   52713   52731  -52752   52764       1   52710   52704   52707   52716       1
   52710   52704   52713   52728       1   52710   52704   52713   52731       1
   52710   52722  -52734   52716       1   52710   52725  -52743   52728       1
   52707   52704   52710   52722       1   52707   52704   52710   52725       1
   52707   52704   52713   52728       1   52707   52704   52713   52731       1
   52707   52716  -52734   52722       1   52704   52707   52716   52734       1
   52704   52710  -52722   52734       1   52704   52710   52725   52743       1
   52704   52713  -52728   52743       1   52704   52713   52728   52749       1
   52704   52713   52731   52752       1   52893   52881   52890   52899       1
   52893   52902  -52908   52899       1   52890   52881   52893   52902       1
   52890   52899  -52908   52902       1   52884   52890   52881   52893       1
   52884   52890   52899   52908       1   52881   52890   52899   52908       1
   52881   52893  -52902   52908       1   52875   52857   52872   52881       1
   52875   52884  -52890   52881       1   52875   52884   52890   52899       1
   52872   52857   52875   52884       1   52872   52881  -52890   52884       1
   52872   52881   52890   52899       1   52872   52881   52893   52902       1
   52860   52872   52857   52875       1   52860   52872   52881   52890       1
   52860   52872   52881   52893       1   52857   52872   52881   52890       1
   52857   52872   52881   52893       1   52857   52875  -52884   52890       1
   52851   52836   52857   52872       1   52851   52836   52857   52875       1
   52839   52821   52836   52851       1   52839   52821   52836   52857       1
   52839   52860  -52872   52857       1   52839   52860   52872   52881       1
   52836   52821   52839   52860       1   52836   52857  -52872   52860       1
   52836   52857   52872   52881       1   52836   52857   52875   52884       1
   52833   52818   52830   52842       1   52833   52851   52836   52857       1
   52830   52818   52833   52851       1   52821   52812   52815   52824       1
   52821   52812   52818   52830       1   52821   52812   52818   52833       1
   52821   52836  -52851   52833       1   52821   52836   52857   52872       1
   52821   52836   52857   52875       1   52821   52839  -52860   52872       1
   52818   52812   52815   52824       1   52818   52812   52821   52836       1
   52818   52812   52821   52839       1   52818   52830  -52842   52824       1
   52818   52833  -52851   52836       1   52815   52812   52818   52830       1
   52815   52812   52818   52833       1   52815   52812   52821   52836       1
   52815   52812   52821   52839       1   52815   52824  -52842   52830       1
   52812   52815   52824   52842       1   52812   52818  -52830   52842       1
   52812   52818   52833   52851       1   52812   52821  -52836   52851       1
   52812   52821   52836   52857       1   52812   52821   52839   52860       1
      69      72     -78     -87       2      60      78     -69     -81       2
      45      48     -60     -69       2      24      60     -45     -63       2
       9      39     -24     -45       2       0      24      -9     -27       2
       0      18      -6     -21       2       9       0      -6      -3       2
     177     180    -186    -195       2     168     186    -177    -189       2
     153     156    -168    -177       2     132     168    -153    -171       2
     117     147    -132    -153       2     108     132    -117    -135       2
     108     126    -114    -129       2     111     114    -108    -117       2
     285     288    -294    -303       2     276     294    -285    -297       2
     261     264    -276    -285       2     240     276    -261    -279       2
     225     255    -240    -261       2     216     240    -225    -243       2
     216     234    -222    -237       2     219     222    -216    -225       2
     393     396    -402    -411       2     384     402    -393    -405       2
     369     372    -384    -393       2     348     384    -369    -387       2
     333     363    -348    -369       2     324     348    -333    -351       2
     324     342    -330    -345       2     327     330    -324    -333       2
     501     504    -510    -519       2     492     510    -501    -513       2
     477     480    -492    -501       2     456     492    -477    -495       2
     441     471    -456    -477       2     432     456    -441    -459       2
     432     450    -438    -453       2     435     438    -432    -441       2
     609     612    -618    -627       2     600     618    -609    -621       2
     585     588    -600    -609       2     564     600    -585    -603       2
     549     579    -564    -585       2     540     564    -549    -567       2
     540     558    -546    -561       2     543     546    -540    -549       2
     717     720    -726    -735       2     708     726    -717    -729       2
     693     696    -708    -717       2     672     708    -693    -711       2
     657     687    -672    -693       2     648     672    -657    -675       2
     648     666    -654    -669       2     651     654    -648    -657       2
     825     828    -834    -843       2     816     834    -825    -837       2
     801     804    -816    -825       2     780     816    -801    -819       2
     765     795    -780    -801       2     756     780    -765    -783       2
     756     774    -762    -777       2     759     762    -756    -765       2
     933     936    -942    -951       2     924     942    -933    -945       2
     909     912    -924    -933       2     888     924    -909    -927       2
     873     903    -888    -909       2     864     888    -873    -891       2
     864     882    -870    -885       2     867     870    -864    -873       2
    1041    1044   -1050   -1059       2    1032    1050   -1041   -1053       2
    1017    1020   -1032   -1041       2     996    1032   -1017   -1035       2
     981    1011    -996   -1017       2     972     996    -981    -999       2
     972     990    -978    -993       2     975     978    -972    -981       2
    1149    1152   -1158   -1167       2    1140    1158   -1149   -1161       2
    1125    1128   -1140   -1149       2    1104    1140   -1125   -1143       2
    1089    1119   -1104   -1125       2    1080    1104   -1089   -1107       2
    1080    1098   -1086   -1101       2    1083    1086   -1080   -1089       2
    1257    1260   -1266   -1275       2    1248    1266   -1257   -1269       2
    1233    1236   -1248   -1257       2    1212    1248   -1233   -1251       2
    1197    1227   -1212   -1233       2    1188    1212   -1197   -1215       2
    1188    1206   -1194   -1209       2    1191    1194   -1188   -1197       2
    1365    1368   -1374   -1383       2    1356    1374   -1365   -1377       2
    1341    1344   -1356   -1365       2    1320    1356   -1341   -1359       2
    1305    1335   -1320   -1341       2    1296    1320   -1305   -1323       2
    1296    1314   -1302   -1317       2    1299    1302   -1296   -1305       2
    1473    1476   -1482   -1491       2    1464    1482   -1473   -1485       2
    1449    1452   -1464   -1473       2    1428    1464   -1449   -1467       2
    1413    1443   -1428   -1449       2    1404    1428   -1413   -1431       2
    1404    1422   -1410   -1425       2    1407    1410   -1404   -1413       2
    1581    1584   -1590   -1599       2    1572    1590   -1581   -1593       2
    1557    1560   -1572   -1581       2    1536    1572   -1557   -1575       2
    1521    1551   -1536   -1557       2    1512    1536   -1521   -1539       2
    1512    1530   -1518   -1533       2    1515    1518   -1512   -1521       2
    1689    1692   -1698   -1707       2    1680    1698   -1689   -1701       2
    1665    1668   -1680   -1689       2    1644    1680   -1665   -1683       2
    1629    1659   -1644   -1665       2    1620    1644   -1629   -1647       2
    1620    1638   -1626   -1641       2    1623    1626   -1620   -1629       2
    1797    1800   -1806   -1815       2    1788    1806   -1797   -1809       2
    1773    1776   -1788   -1797       2    1752    1788   -1773   -1791       2
    1737    1767   -1752   -1773       2    1728    1752   -1737   -1755       2
    1728    1746   -1734   -1749       2    1731    1734   -1728   -1737       2
    1905    1908   -1914   -1923       2    1896    1914   -1905   -1917       2
    1881    1884   -1896   -1905       2    1860    1896   -1881   -1899       2
    1845    1875   -1860   -1881       2    1836    1860   -1845   -1863       2
    1836    1854   -1842   -1857       2    1839    1842   -1836   -1845       2
    2013    2016   -2022   -2031       2    2004    2022   -2013   -2025       2
    1989    1992   -2004   -2013       2    1968    2004   -1989   -2007       2
    1953    1983   -1968   -1989       2    1944    1968   -1953   -1971       2
    1944    1962   -1950   -1965       2    1947    1950   -1944   -1953       2
    2121    2124   -2130   -2139       2    2112    2130   -2121   -2133       2
    2097    2100   -2112   -2121       2    2076    2112   -2097   -2115       2
    2061    2091   -2076   -2097       2    2052    2076   -2061   -2079       2
    2052    2070   -2058   -2073       2    2055    2058   -2052   -2061       2
    2229    2232   -2238   -2247       2    2220    2238   -2229   -2241       2
    2205    2208   -2220   -2229       2    2184    2220   -2205   -2223       2
    2169    2199   -2184   -2205       2    2160    2184   -2169   -2187       2
    2160    2178   -2166   -2181       2    2163    2166   -2160   -2169       2
    2337    2340   -2346   -2355       2    2328    2346   -2337   -2349       2
    2313    2316   -2328   -2337       2    2292    2328   -2313   -2331       2
    2277    2307   -2292   -2313       2    2268    2292   -2277   -2295       2
    2268    2286   -2274   -2289       2    2271    2274   -2268   -2277       2
    2445    2448   -2454   -2463       2    2436    2454   -2445   -2457       2
    2421    2424   -2436   -2445       2    2400    2436   -2421   -2439       2
    2385    2415   -2400   -2421       2    2376    2400   -2385   -2403       2
    2376    2394   -2382   -2397       2    2379    2382   -2376   -2385       2
    2553    2556   -2562   -2571       2    2544    2562   -2553   -2565       2
    2529    2532   -2544   -2553       2    2508    2544   -2529   -2547       2
    2493    2523   -2508   -2529       2    2484    2508   -2493   -2511       2
    2484    2502   -2490   -2505       2    2487    2490   -2484   -2493       2
    2661    2664   -2670   -2679       2    2652    2670   -2661   -2673       2
    2637    2640   -2652   -2661       2    2616    2652   -2637   -2655       2
    2601    2631   -2616   -2637       2    2592    2616   -2601   -2619       2
    2592    2610   -2598   -2613       2    2595    2598   -2592   -2601       2
    2769    2772   -2778   -2787       2    2760    2778   -2769   -2781       2
    2745    2748   -2760   -2769       2    2724    2760   -2745   -2763       2
    2709    2739   -2724   -2745       2    2700    2724   -2709   -2727       2
    2700    2718   -2706   -2721       2    2703    2706   -2700   -2709       2
    2877    2880   -2886   -2895       2    2868    2886   -2877   -2889       2
    2853    2856   -2868   -2877       2    2832    2868   -2853   -2871       2
    2817    2847   -2832   -2853       2    2808    2832   -2817   -2835       2
    2808    2826   -2814   -2829       2    2811    2814   -2808   -2817       2
    2985    2988   -2994   -3003       2    2976    2994   -2985   -2997       2
    2961    2964   -2976   -2985       2    2940    2976   -2961   -2979       2
    2925    2955   -2940   -2961       2    2916    2940   -2925   -2943       2
    2916    2934   -2922   -2937       2    2919    2922   -2916   -2925       2
    3093    3096   -3102   -3111       2    3084    3102   -3093   -3105       2
    3069    3072   -3084   -3093       2    3048    3084   -3069   -3087       2
    3033    3063   -3048   -3069       2    3024    3048   -3033   -3051       2
    3024    3042   -3030   -3045       2    3027    3030   -3024   -3033       2
    3201    3204   -3210   -3219       2    3192    3210   -3201   -3213       2
    3177    3180   -3192   -3201       2    3156    3192   -3177   -3195       2
    3141    3171   -3156   -3177       2    3132    3156   -3141   -3159       2
    3132    3150   -3138   -3153       2    3135    3138   -3132   -3141       2
    3309    3312   -3318   -3327       2    3300    3318   -3309   -3321       2
    3285    3288   -3300   -3309       2    3264    3300   -3285   -3303       2
    3249    3279   -3264   -3285       2    3240    3264   -3249   -3267       2
    3240    3258   -3246   -3261       2    3243    3246   -3240   -3249       2
    3417    3420   -3426   -3435       2    3408    3426   -3417   -3429       2
    3393    3396   -3408   -3417       2    3372    3408   -3393   -3411       2
    3357    3387   -3372   -3393       2    3348    3372   -3357   -3375       2
    3348    3366   -3354   -3369       2    3351    3354   -3348   -3357       2
    3525    3528   -3534   -3543       2    3516    3534   -3525   -3537       2
    3501    3504   -3516   -3525       2    3480    3516   -3501   -3519       2
    3465    3495   -3480   -3501       2    3456    3480   -3465   -3483       2
    3456    3474   -3462   -3477       2    3459    3462   -3456   -3465       2
    3633    3636   -3642   -3651       2    3624    3642   -3633   -3645       2
    3609    3612   -3624   -3633       2    3588    3624   -3609   -3627       2
    3573    3603   -3588   -3609       2    3564    3588   -3573   -3591       2
    3564    3582   -3570   -3585       2    3567    3570   -3564   -3573       2
    3741    3744   -3750   -3759       2    3732    3750   -3741   -3753       2
    3717    3720   -3732   -3741       2    3696    3732   -3717   -3735       2
    3681    3711   -3696   -3717       2    3672    3696   -3681   -3699       2
    3672    3690   -3678   -3693       2    3675    3678   -3672   -3681       2
    3849    3852   -3858   -3867       2    3840    3858   -3849   -3861       2
    3825    3828   -3840   -3849       2    3804    3840   -3825   -3843       2
    3789    3819   -3804   -3825       2    3780    3804   -3789   -3807       2
    3780    3798   -3786   -3801       2    3783    3786   -3780   -3789       2
    3957    3960   -3966   -3975       2    3948    3966   -3957   -3969       2
    3933    3936   -3948   -3957       2    3912    3948   -3933   -3951       2
    3897    3927   -3912   -3933       2    3888    3912   -3897   -3915       2
    3888    3906   -3894   -3909       2    3891    3894   -3888   -3897       2
    4065    4068   -4074   -4083       2    4056    4074   -4065   -4077       2
    4041    4044   -4056   -4065       2    4020    4056   -4041   -4059       2
    4005    4035   -4020   -4041       2    3996    4020   -4005   -4023       2
    3996    4014   -4002   -4017       2    3999    4002   -3996   -4005       2
    4173    4176   -4182   -4191       2    4164    4182   -4173   -4185       2
    4149    4152   -4164   -4173       2    4128    4164   -4149   -4167       2
    4113    4143   -4128   -4149       2    4104    4128   -4113   -4131       2
    4104    4122   -4110   -4125       2    4107    4110   -4104   -4113       2
    4281    4284   -4290   -4299       2    4272    4290   -4281   -4293       2
    4257    4260   -4272   -4281       2    4236    4272   -4257   -4275       2
    4221    4251   -4236   -4257       2    4212    4236   -4221   -4239       2
    4212    4230   -4218   -4233       2    4215    4218   -4212   -4221       2
    4389    4392   -4398   -4407       2    4380    4398   -4389   -4401       2
    4365    4368   -4380   -4389       2    4344    4380   -4365   -4383       2
    4329    4359   -4344   -4365       2    4320    4344   -4329   -4347       2
    4320    4338   -4326   -4341       2    4323    4326   -4320   -4329       2
    4497    4500   -4506   -4515       2    4488    4506   -4497   -4509       2
    4473    4476   -4488   -4497       2    4452    4488   -4473   -4491       2
    4437    4467   -4452   -4473       2    4428    4452   -4437   -4455       2
    4428    4446   -4434   -4449       2    4431    4434   -4428   -4437       2
    4605    4608   -4614   -4623       2    4596    4614   -4605   -4617       2
    4581    4584   -4596   -4605       2    4560    4596   -4581   -4599       2
    4545    4575   -4560   -4581       2    4536    4560   -4545   -4563       2
    4536    4554   -4542   -4557       2    4539    4542   -4536   -4545       2
    4713    4716   -4722   -4731       2    4704    4722   -4713   -4725       2
    4689    4692   -4704   -4713       2    4668    4704   -4689   -4707       2
    4653    4683   -4668   -4689       2    4644    4668   -4653   -4671       2
    4644    4662   -4650   -4665       2    4647    4650   -4644   -4653       2
    4821    4824   -4830   -4839       2    4812    4830   -4821   -4833       2
    4797    4800   -4812   -4821       2    4776    4812   -4797   -4815       2
    4761    4791   -4776   -4797       2    4752    4776   -4761   -4779       2
    4752    4770   -4758   -4773       2    4755    4758   -4752   -4761       2
    4929    4932   -4938   -4947       2    4920    4938   -4929   -4941       2
    4905    4908   -4920   -4929       2    4884    4920   -4905   -4923       2
    4869    4899   -4884   -4905       2    4860    4884   -4869   -4887       2
    4860    4878   -4866   -4881       2    4863    4866   -4860   -4869       2
    5037    5040   -5046   -5055       2    5028    5046   -5037   -5049       2
    5013    5016   -5028   -5037       2    4992    5028   -5013   -5031       2
    4977    5007   -4992   -5013       2    4968    4992   -4977   -4995       2
    4968    4986   -4974   -4989       2    4971    4974   -4968   -4977       2
    5145    5148   -5154   -5163       2    5136    5154   -5145   -5157       2
    5121    5124   -5136   -5145       2    5100    5136   -5121   -5139       2
    5085    5115   -5100   -5121       2    5076    5100   -5085   -5103       2
    5076    5094   -5082   -5097       2    5079    5082   -5076   -5085       2
    5253    5256   -5262   -5271       2    5244    5262   -5253   -5265       2
    5229    5232   -5244   -5253       2    5208    5244   -5229   -5247       2
    5193    5223   -5208   -5229       2    5184    5208   -5193   -5211       2
    5184    5202   -5190   -5205       2    5187    5190   -5184   -5193       2
    5361    5364   -5370   -5379       2    5352    5370   -5361   -5373       2
    5337    5340   -5352   -5361       2    5316    5352   -5337   -5355       2
    5301    5331   -5316   -5337       2    5292    5316   -5301   -5319       2
    5292    5310   -5298   -5313       2    5295    5298   -5292   -5301       2
    5469    5472   -5478   -5487       2    5460    5478   -5469   -5481       2
    5445    5448   -5460   -5469       2    5424    5460   -5445   -5463       2
    5409    5439   -5424   -5445       2    5400    5424   -5409   -5427       2
    5400    5418   -5406   -5421       2    5403    5406   -5400   -5409       2
    5577    5580   -5586   -5595       2    5568    5586   -5577   -5589       2
    5553    5556   -5568   -5577       2    5532    5568   -5553   -5571       2
    5517    5547   -5532   -5553       2    5508    5532   -5517   -5535       2
    5508    5526   -5514   -5529       2    5511    5514   -5508   -5517       2
    5685    5688   -5694   -5703       2    5676    5694   -5685   -5697       2
    5661    5664   -5676   -5685       2    5640    5676   -5661   -5679       2
    5625    5655   -5640   -5661       2    5616    5640   -5625   -5643       2
    5616    5634   -5622   -5637       2    5619    5622   -5616   -5625       2
    5793    5796   -5802   -5811       2    5784    5802   -5793   -5805       2
    5769    5772   -5784   -5793       2    5748    5784   -5769   -5787       2
    5733    5763   -5748   -5769       2    5724    5748   -5733   -5751       2
    5724    5742   -5730   -5745       2    5727    5730   -5724   -5733       2
    5901    5904   -5910   -5919       2    5892    5910   -5901   -5913       2
    5877    5880   -5892   -5901       2    5856    5892   -5877   -5895       2
    5841    5871   -5856   -5877       2    5832    5856   -5841   -5859       2
    5832    5850   -5838   -5853       2    5835    5838   -5832   -5841       2
    6009    6012   -6018   -6027       2    6000    6018   -6009   -6021       2
    5985    5988   -6000   -6009       2    5964    6000   -5985   -6003       2
    5949    5979   -5964   -5985       2    5940    5964   -5949   -5967       2
    5940    5958   -5946   -5961       2    5943    5946   -5940   -5949       2
    6117    6120   -6126   -6135       2    6108    6126   -6117   -6129       2
    6093    6096   -6108   -6117       2    6072    6108   -6093   -6111       2
    6057    6087   -6072   -6093       2    6048    6072   -6057   -6075       2
    6048    6066   -6054   -6069       2    6051    6054   -6048   -6057       2
    6225    6228   -6234   -6243       2    6216    6234   -6225   -6237       2
    6201    6204   -6216   -6225       2    6180    6216   -6201   -6219       2
    6165    6195   -6180   -6201       2    6156    6180   -6165   -6183       2
    6156    6174   -6162   -6177       2    6159    6162   -6156   -6165       2
    6333    6336   -6342   -6351       2    6324    6342   -6333   -6345       2
    6309    6312   -6324   -6333       2    6288    6324   -6309   -6327       2
    6273    6303   -6288   -6309       2    6264    6288   -6273   -6291       2
    6264    6282   -6270   -6285       2    6267    6270   -6264   -6273       2
    6441    6444   -6450   -6459       2    6432    6450   -6441   -6453       2
    6417    6420   -6432   -6441       2    6396    6432   -6417   -6435       2
    6381    6411   -6396   -6417       2    6372    6396   -6381   -6399       2
    6372    6390   -6378   -6393       2    6375    6378   -6372   -6381       2
    6549    6552   -6558   -6567       2    6540    6558   -6549   -6561       2
    6525    6528   -6540   -6549       2    6504    6540   -6525   -6543       2
    6489    6519   -6504   -6525       2    6480    6504   -6489   -6507       2
    6480    6498   -6486   -6501       2    6483    6486   -6480   -6489       2
    6657    6660   -6666   -6675       2    6648    6666   -6657   -6669       2
    6633    6636   -6648   -6657       2    6612    6648   -6633   -6651       2
    6597    6627   -6612   -6633       2    6588    6612   -6597   -6615       2
    6588    6606   -6594   -6609       2    6591    6594   -6588   -6597       2
    6765    6768   -6774   -6783       2    6756    6774   -6765   -6777       2
    6741    6744   -6756   -6765       2    6720    6756   -6741   -6759       2
    6705    6735   -6720   -6741       2    6696    6720   -6705   -6723       2
    6696    6714   -6702   -6717       2    6699    6702   -6696   -6705       2
    6873    6876   -6882   -6891       2    6864    6882   -6873   -6885       2
    6849    6852   -6864   -6873       2    6828    6864   -6849   -6867       2
    6813    6843   -6828   -6849       2    6804    6828   -6813   -6831       2
    6804    6822   -6810   -6825       2    6807    6810   -6804   -6813       2
    6981    6984   -6990   -6999       2    6972    6990   -6981   -6993       2
    6957    6960   -6972   -6981       2    6936    6972   -6957   -6975       2
    6921    6951   -6936   -6957       2    6912    6936   -6921   -6939       2
    6912    6930   -6918   -6933       2    6915    6918   -6912   -6921       2
    7089    7092   -7098   -7107       2    7080    7098   -7089   -7101       2
    7065    7068   -7080   -7089       2    7044    7080   -7065   -7083       2
    7029    7059   -7044   -7065       2    7020    7044   -7029   -7047       2
    7020    7038   -7026   -7041       2    7023    7026   -7020   -7029       2
    7197    7200   -7206   -7215       2    7188    7206   -7197   -7209       2
    7173    7176   -7188   -7197       2    7152    7188   -7173   -7191       2
    7137    7167   -7152   -7173       2    7128    7152   -7137   -7155       2
    7128    7146   -7134   -7149       2    7131    7134   -7128   -7137       2
    7305    7308   -7314   -7323       2    7296    7314   -7305   -7317       2
    7281    7284   -7296   -7305       2    7260    7296   -7281   -7299       2
    7245    7275   -7260   -7281       2    7236    7260   -7245   -7263       2
    7236    7254   -7242   -7257       2    7239    7242   -7236   -7245       2
    7413    7416   -7422   -7431       2    7404    7422   -7413   -7425       2
    7389    7392   -7404   -7413       2    7368    7404   -7389   -7407       2
    7353    7383   -7368   -7389       2    7344    7368   -7353   -7371       2
    7344    7362   -7350   -7365       2    7347    7350   -7344   -7353       2
    7521    7524   -7530   -7539       2    7512    7530   -7521   -7533       2
    7497    7500   -7512   -7521       2    7476    7512   -7497   -7515       2
    7461    7491   -7476   -7497       2    7452    7476   -7461   -7479       2
    7452    7470   -7458   -7473       2    7455    7458   -7452   -7461       2
    7629    7632   -7638   -7647       2    7620    7638   -7629   -7641       2
    7605    7608   -7620   -7629       2    7584    7620   -7605   -7623       2
    7569    7599   -7584   -7605       2    7560    7584   -7569   -7587       2
    7560    7578   -7566   -7581       2    7563    7566   -7560   -7569       2
    7737    7740   -7746   -7755       2    7728    7746   -7737   -7749       2
    7713    7716   -7728   -7737       2    7692    7728   -7713   -7731       2
    7677    7707   -7692   -7713       2    7668    7692   -7677   -7695       2
    7668    7686   -7674   -7689       2    7671    7674   -7668   -7677       2
    7845    7848   -7854   -7863       2    7836    7854   -7845   -7857       2
    7821    7824   -7836   -7845       2    7800    7836   -7821   -7839       2
    7785    7815   -7800   -7821       2    7776    7800   -7785   -7803       2
    7776    7794   -7782   -7797       2    7779    7782   -7776   -7785       2
    7953    7956   -7962   -7971       2    7944    7962   -7953   -7965       2
    7929    7932   -7944   -7953       2    7908    7944   -7929   -7947       2
    7893    7923   -7908   -7929       2    7884    7908   -7893   -7911       2
    7884    7902   -7890   -7905       2    7887    7890   -7884   -7893       2
    8061    8064   -8070   -8079       2    8052    8070   -8061   -8073       2
    8037    8040   -8052   -8061       2    8016    8052   -8037   -8055       2
    8001    8031   -8016   -8037       2    7992    8016   -8001   -8019       2
    7992    8010   -7998   -8013       2    7995    7998   -7992   -8001       2
    8169    8172   -8178   -8187       2    8160    8178   -8169   -8181       2
    8145    8148   -8160   -8169       2    8124    8160   -8145   -8163       2
    8109    8139   -8124   -8145       2    8100    8124   -8109   -8127       2
    8100    8118   -8106   -8121       2    8103    8106   -8100   -8109       2
    8277    8280   -8286   -8295       2    8268    8286   -8277   -8289       2
    8253    8256   -8268   -8277       2    8232    8268   -8253   -8271       2
    8217    8247   -8232   -8253       2    8208    8232   -8217   -8235       2
    8208    8226   -8214   -8229       2    8211    8214   -8208   -8217       2
    8385    8388   -8394   -8403       2    8376    8394   -8385   -8397       2
    8361    8364   -8376   -8385       2    8340    8376   -8361   -8379       2
    8325    8355   -8340   -8361       2    8316    8340   -8325   -8343       2
    8316    8334   -8322   -8337       2    8319    8322   -8316   -8325       2
    8493    8496   -8502   -8511       2    8484    8502   -8493   -8505       2
    8469    8472   -8484   -8493       2    8448    8484   -8469   -8487       2
    8433    8463   -8448   -8469       2    8424    8448   -8433   -8451       2
    8424    8442   -8430   -8445       2    8427    8430   -8424   -8433       2
    8601    8604   -8610   -8619       2    8592    8610   -8601   -8613       2
    8577    8580   -8592   -8601       2    8556    8592   -8577   -8595       2
    8541    8571   -8556   -8577       2    8532    8556   -8541   -8559       2
    8532    8550   -8538   -8553       2    8535    8538   -8532   -8541       2
    8709    8712   -8718   -8727       2    8700    8718   -8709   -8721       2
    8685    8688   -8700   -8709       2    8664    8700   -8685   -8703       2
    8649    8679   -8664   -8685       2    8640    8664   -8649   -8667       2
    8640    8658   -8646   -8661       2    8643    8646   -8640   -8649       2
    8817    8820   -8826   -8835       2    8808    8826   -8817   -8829       2
    8793    8796   -8808   -8817       2    8772    8808   -8793   -8811       2
    8757    8787   -8772   -8793       2    8748    8772   -8757   -8775       2
    8748    8766   -8754   -8769       2    8751    8754   -8748   -8757       2
    8925    8928   -8934   -8943       2    8916    8934   -8925   -8937       2
    8901    8904   -8916   -8925       2    8880    8916   -8901   -8919       2
    8865    8895   -8880   -8901       2    8856    8880   -8865   -8883       2
    8856    8874   -8862   -8877       2    8859    8862   -8856   -8865       2
    9033    9036   -9042   -9051       2    9024    9042   -9033   -9045       2
    9009    9012   -9024   -9033       2    8988    9024   -9009   -9027       2
    8973    9003   -8988   -9009       2    8964    8988   -8973   -8991       2
    8964    8982   -8970   -8985       2    8967    8970   -8964   -8973       2
    9141    9144   -9150   -9159       2    9132    9150   -9141   -9153       2
    9117    9120   -9132   -9141       2    9096    9132   -9117   -9135       2
    9081    9111   -9096   -9117       2    9072    9096   -9081   -9099       2
    9072    9090   -9078   -9093       2    9075    9078   -9072   -9081       2
    9249    9252   -9258   -9267       2    9240    9258   -9249   -9261       2
    9225    9228   -9240   -9249       2    9204    9240   -9225   -9243       2
    9189    9219   -9204   -9225       2    9180    9204   -9189   -9207       2
    9180    9198   -9186   -9201       2    9183    9186   -9180   -9189       2
    9357    9360   -9366   -9375       2    9348    9366   -9357   -9369       2
    9333    9336   -9348   -9357       2    9312    9348   -9333   -9351       2
    9297    9327   -9312   -9333       2    9288    9312   -9297   -9315       2
    9288    9306   -9294   -9309       2    9291    9294   -9288   -9297       2
    9465    9468   -9474   -9483       2    9456    9474   -9465   -9477       2
    9441    9444   -9456   -9465       2    9420    9456   -9441   -9459       2
    9405    9435   -9420   -9441       2    9396    9420   -9405   -9423       2
    9396    9414   -9402   -9417       2    9399    9402   -9396   -9405       2
    9573    9576   -9582   -9591       2    9564    9582   -9573   -9585       2
    9549    9552   -9564   -9573       2    9528    9564   -9549   -9567       2
    9513    9543   -9528   -9549       2    9504    9528   -9513   -9531       2
    9504    9522   -9510   -9525       2    9507    9510   -9504   -9513       2
    9681    9684   -9690   -9699       2    9672    9690   -9681   -9693       2
    9657    9660   -9672   -9681       2    9636    9672   -9657   -9675       2
    9621    9651   -9636   -9657       2    9612    9636   -9621   -9639       2
    9612    9630   -9618   -9633       2    9615    9618   -9612   -9621       2
    9789    9792   -9798   -9807       2    9780    9798   -9789   -9801       2
    9765    9768   -9780   -9789       2    9744    9780   -9765   -9783       2
    9729    9759   -9744   -9765       2    9720    9744   -9729   -9747       2
    9720    9738   -9726   -9741       2    9723    9726   -9720   -9729       2
    9897    9900   -9906   -9915       2    9888    9906   -9897   -9909       2
    9873    9876   -9888   -9897       2    9852    9888   -9873   -9891       2
    9837    9867   -9852   -9873       2    9828    9852   -9837   -9855       2
    9828    9846   -9834   -9849       2    9831    9834   -9828   -9837       2
   10005   10008  -10014  -10023       2    9996   10014  -10005  -10017       2
    9981    9984   -9996  -10005       2    9960    9996   -9981   -9999       2
    9945    9975   -9960   -9981       2    9936    9960   -9945   -9963       2
    9936    9954   -9942   -9957       2    9939    9942   -9936   -9945       2
   10113   10116  -10122  -10131       2   10104   10122  -10113  -10125       2
   10089   10092  -10104  -10113       2   10068   10104  -10089  -10107       2
   10053   10083  -10068  -10089       2   10044   10068  -10053  -10071       2
   10044   10062  -10050  -10065       2   10047   10050  -10044  -10053       2
   10221   10224  -10230  -10239       2   10212   10230  -10221  -10233       2
   10197   10200  -10212  -10221       2   10176   10212  -10197  -10215       2
   10161   10191  -10176  -10197       2   10152   10176  -10161  -10179       2
   10152   10170  -10158  -10173       2   10155   10158  -10152  -10161       2
   10329   10332  -10338  -10347       2   10320   10338  -10329  -10341       2
   10305   10308  -10320  -10329       2   10284   10320  -10305  -10323       2
   10269   10299  -10284  -10305       2   10260   10284  -10269  -10287       2
   10260   10278  -10266  -10281       2   10263   10266  -10260  -10269       2
   10437   10440  -10446  -10455       2   10428   10446  -10437  -10449       2
   10413   10416  -10428  -10437       2   10392   10428  -10413  -10431       2
   10377   10407  -10392  -10413       2   10368   10392  -10377  -10395       2
   10368   10386  -10374  -10389       2   10371   10374  -10368  -10377       2
   10545   10548  -10554  -10563       2   10536   10554  -10545  -10557       2
   10521   10524  -10536  -10545       2   10500   10536  -10521  -10539       2
   10485   10515  -10500  -10521       2   10476   10500  -10485  -10503       2
   10476   10494  -10482  -10497       2   10479   10482  -10476  -10485       2
   10653   10656  -10662  -10671       2   10644   10662  -10653  -10665       2
   10629   10632  -10644  -10653       2   10608   10644  -10629  -10647       2
   10593   10623  -10608  -10629       2   10584   10608  -10593  -10611       2
   10584   10602  -10590  -10605       2   10587   10590  -10584  -10593       2
   10761   10764  -10770  -10779       2   10752   10770  -10761  -10773       2
   10737   10740  -10752  -10761       2   10716   10752  -10737  -10755       2
   10701   10731  -10716  -10737       2   10692   10716  -10701  -10719       2
   10692   10710  -10698  -10713       2   10695   10698  -10692  -10701       2
   10869   10872  -10878  -10887       2   10860   10878  -10869  -10881       2
   10845   10848  -10860  -10869       2   10824   10860  -10845  -10863       2
   10809   10839  -10824  -10845       2   10800   10824  -10809  -10827       2
   10800   10818  -10806  -10821       2   10803   10806  -10800  -10809       2
   10977   10980  -10986  -10995       2   10968   10986  -10977  -10989       2
   10953   10956  -10968  -10977       2   10932   10968  -10953  -10971       2
   10917   10947  -10932  -10953       2   10908   10932  -10917  -10935       2
   10908   10926  -10914  -10929       2   10911   10914  -10908  -10917       2
   11085   11088  -11094  -11103       2   11076   11094  -11085  -11097       2
   11061   11064  -11076  -11085       2   11040   11076  -11061  -11079       2
   11025   11055  -11040  -11061       2   11016   11040  -11025  -11043       2
   11016   11034  -11022  -11037       2   11019   11022  -11016  -11025       2
   11193   11196  -11202  -11211       2   11184   11202  -11193  -11205       2
   11169   11172  -11184  -11193       2   11148   11184  -11169  -11187       2
   11133   11163  -11148  -11169       2   11124   11148  -11133  -11151       2
   11124   11142  -11130  -11145       2   11127   11130  -11124  -11133       2
   11301   11304  -11310  -11319       2   11292   11310  -11301  -11313       2
   11277   11280  -11292  -11301       2   11256   11292  -11277  -11295       2
   11241   11271  -11256  -11277       2   11232   11256  -11241  -11259       2
   11232   11250  -11238  -11253       2   11235   11238  -11232  -11241       2
   11409   11412  -11418  -11427       2   11400   11418  -11409  -11421       2
   11385   11388  -11400  -11409       2   11364   11400  -11385  -11403       2
   11349   11379  -11364  -11385       2   11340   11364  -11349  -11367       2
   11340   11358  -11346  -11361       2   11343   11346  -11340  -11349       2
   11517   11520  -11526  -11535       2   11508   11526  -11517  -11529       2
   11493   11496  -11508  -11517       2   11472   11508  -11493  -11511       2
   11457   11487  -11472  -11493       2   11448   11472  -11457  -11475       2
   11448   11466  -11454  -11469       2   11451   11454  -11448  -11457       2
   11625   11628  -11634  -11643       2   11616   11634  -11625  -11637       2
   11601   11604  -11616  -11625       2   11580   11616  -11601  -11619       2
   11565   11595  -11580  -11601       2   11556   11580  -11565  -11583       2
   11556   11574  -11562  -11577       2   11559   11562  -11556  -11565       2
   11733   11736  -11742  -11751       2   11724   11742  -11733  -11745       2
   11709   11712  -11724  -11733       2   11688   11724  -11709  -11727       2
   11673   11703  -11688  -11709       2   11664   11688  -11673  -11691       2
   11664   11682  -11670  -11685       2   11667   11670  -11664  -11673       2
   11841   11844  -11850  -11859       2   11832   11850  -11841  -11853       2
   11817   11820  -11832  -11841       2   11796   11832  -11817  -11835       2
   11781   11811  -11796  -11817       2   11772   11796  -11781  -11799       2
   11772   11790  -11778  -11793       2   11775   11778  -11772  -11781       2
   11949   11952  -11958  -11967       2   11940   11958  -11949  -11961       2
   11925   11928  -11940  -11949       2   11904   11940  -11925  -11943       2
   11889   11919  -11904  -11925       2   11880   11904  -11889  -11907       2
   11880   11898  -11886  -11901       2   11883   11886  -11880  -11889       2
   12057   12060  -12066  -12075       2   12048   12066  -12057  -12069       2
   12033   12036  -12048  -12057       2   12012   12048  -12033  -12051       2
   11997   12027  -12012  -12033       2   11988   12012  -11997  -12015       2
   11988   12006  -11994  -12009       2   11991   11994  -11988  -11997       2
   12165   12168  -12174  -12183       2   12156   12174  -12165  -12177       2
   12141   12144  -12156  -12165       2   12120   12156  -12141  -12159       2
   12105   12135  -12120  -12141       2   12096   12120  -12105  -12123       2
   12096   12114  -12102  -12117       2   12099   12102  -12096  -12105       2
   12273   12276  -12282  -12291       2   12264   12282  -12273  -12285       2
   12249   12252  -12264  -12273       2   12228   12264  -12249  -12267       2
   12213   12243  -12228  -12249       2   12204   12228  -12213  -12231       2
   12204   12222  -12210  -12225       2   12207   12210  -12204  -12213       2
   12381   12384  -12390  -12399       2   12372   12390  -12381  -12393       2
   12357   12360  -12372  -12381       2   12336   12372  -12357  -12375       2
   12321   12351  -12336  -12357       2   12312   12336  -12321  -12339       2
   12312   12330  -12318  -12333       2   12315   12318  -12312  -12321       2
   12489   12492  -12498  -12507       2   12480   12498  -12489  -12501       2
   12465   12468  -12480  -12489       2   12444   12480  -12465  -12483       2
   12429   12459  -12444  -12465       2   12420   12444  -12429  -12447       2
   12420   12438  -12426  -12441       2   12423   12426  -12420  -12429       2
   12597   12600  -12606  -12615       2   12588   12606  -12597  -12609       2
   12573   12576  -12588  -12597       2   12552   12588  -12573  -12591       2
   12537   12567  -12552  -12573       2   12528   12552  -12537  -12555       2
   12528   12546  -12534  -12549       2   12531   12534  -12528  -12537       2
   12705   12708  -12714  -12723       2   12696   12714  -12705  -12717       2
   12681   12684  -12696  -12705       2   12660   12696  -12681  -12699       2
   12645   12675  -12660  -12681       2   12636   12660  -12645  -12663       2
   12636   12654  -12642  -12657       2   12639   12642  -12636  -12645       2
   12813   12816  -12822  -12831       2   12804   12822  -12813  -12825       2
   12789   12792  -12804  -12813       2   12768   12804  -12789  -12807       2
   12753   12783  -12768  -12789       2   12744   12768  -12753  -12771       2
   12744   12762  -12750  -12765       2   12747   12750  -12744  -12753       2
   12921   12924  -12930  -12939       2   12912   12930  -12921  -12933       2
   12897   12900  -12912  -12921       2   12876   12912  -12897  -12915       2
   12861   12891  -12876  -12897       2   12852   12876  -12861  -12879       2
   12852   12870  -12858  -12873       2   12855   12858  -12852  -12861       2
   13029   13032  -13038  -13047       2   13020   13038  -13029  -13041       2
   13005   13008  -13020  -13029       2   12984   13020  -13005  -13023       2
   12969   12999  -12984  -13005       2   12960   12984  -12969  -12987       2
   12960   12978  -12966  -12981       2   12963   12966  -12960  -12969       2
   13137   13140  -13146  -13155       2   13128   13146  -13137  -13149       2
   13113   13116  -13128  -13137       2   13092   13128  -13113  -13131       2
   13077   13107  -13092  -13113       2   13068   13092  -13077  -13095       2
   13068   13086  -13074  -13089       2   13071   13074  -13068  -13077       2
   13245   13248  -13254  -13263       2   13236   13254  -13245  -13257       2
   13221   13224  -13236  -13245       2   13200   13236  -13221  -13239       2
   13185   13215  -13200  -13221       2   13176   13200  -13185  -13203       2
   13176   13194  -13182  -13197       2   13179   13182  -13176  -13185       2
   13353   13356  -13362  -13371       2   13344   13362  -13353  -13365       2
   13329   13332  -13344  -13353       2   13308   13344  -13329  -13347       2
   13293   13323  -13308  -13329       2   13284   13308  -13293  -13311       2
   13284   13302  -13290  -13305       2   13287   13290  -13284  -13293       2
   13461   13464  -13470  -13479       2   13452   13470  -13461  -13473       2
   13437   13440  -13452  -13461       2   13416   13452  -13437  -13455       2
   13401   13431  -13416  -13437       2   13392   13416  -13401  -13419       2
   13392   13410  -13398  -13413       2   13395   13398  -13392  -13401       2
   13569   13572  -13578  -13587       2   13560   13578  -13569  -13581       2
   13545   13548  -13560  -13569       2   13524   13560  -13545  -13563       2
   13509   13539  -13524  -13545       2   13500   13524  -13509  -13527       2
   13500   13518  -13506  -13521       2   13503   13506  -13500  -13509       2
   13677   13680  -13686  -13695       2   13668   13686  -13677  -13689       2
   13653   13656  -13668  -13677       2   13632   13668  -13653  -13671       2
   13617   13647  -13632  -13653       2   13608   13632  -13617  -13635       2
   13608   13626  -13614  -13629       2   13611   13614  -13608  -13617       2
   13785   13788  -13794  -13803       2   13776   13794  -13785  -13797       2
   13761   13764  -13776  -13785       2   13740   13776  -13761  -13779       2
   13725   13755  -13740  -13761       2   13716   13740  -13725  -13743       2
   13716   13734  -13722  -13737       2   13719   13722  -13716  -13725       2
   13893   13896  -13902  -13911       2   13884   13902  -13893  -13905       2
   13869   13872  -13884  -13893       2   13848   13884  -13869  -13887       2
   13833   13863  -13848  -13869       2   13824   13848  -13833  -13851       2
   13824   13842  -13830  -13845       2   13827   13830  -13824  -13833       2
   14001   14004  -14010  -14019       2   13992   14010  -14001  -14013       2
   13977   13980  -13992  -14001       2   13956   13992  -13977  -13995       2
   13941   13971  -13956  -13977       2   13932   13956  -13941  -13959       2
   13932   13950  -13938  -13953       2   13935   13938  -13932  -13941       2
   14109   14112  -14118  -14127       2   14100   14118  -14109  -14121       2
   14085   14088  -14100  -14109       2   14064   14100  -14085  -14103       2
   14049   14079  -14064  -14085       2   14040   14064  -14049  -14067       2
   14040   14058  -14046  -14061       2   14043   14046  -14040  -14049       2
   14217   14220  -14226  -14235       2   14208   14226  -14217  -14229       2
   14193   14196  -14208  -14217       2   14172   14208  -14193  -14211       2
   14157   14187  -14172  -14193       2   14148   14172  -14157  -14175       2
   14148   14166  -14154  -14169       2   14151   14154  -14148  -14157       2
   14325   14328  -14334  -14343       2   14316   14334  -14325  -14337       2
   14301   14304  -14316  -14325       2   14280   14316  -14301  -14319       2
   14265   14295  -14280  -14301       2   14256   14280  -14265  -14283       2
   14256   14274  -14262  -14277       2   14259   14262  -14256  -14265       2
   14433   14436  -14442  -14451       2   14424   14442  -14433  -14445       2
   14409   14412  -14424  -14433       2   14388   14424  -14409  -14427       2
   14373   14403  -14388  -14409       2   14364   14388  -14373  -14391       2
   14364   14382  -14370  -14385       2   14367   14370  -14364  -14373       2
   14541   14544  -14550  -14559       2   14532   14550  -14541  -14553       2
   14517   14520  -14532  -14541       2   14496   14532  -14517  -14535       2
   14481   14511  -14496  -14517       2   14472   14496  -14481  -14499       2
   14472   14490  -14478  -14493       2   14475   14478  -14472  -14481       2
   14649   14652  -14658  -14667       2   14640   14658  -14649  -14661       2
   14625   14628  -14640  -14649       2   14604   14640  -14625  -14643       2
   14589   14619  -14604  -14625       2   14580   14604  -14589  -14607       2
   14580   14598  -14586  -14601       2   14583   14586  -14580  -14589       2
   14757   14760  -14766  -14775       2   14748   14766  -14757  -14769       2
   14733   14736  -14748  -14757       2   14712   14748  -14733  -14751       2
   14697   14727  -14712  -14733       2   14688   14712  -14697  -14715       2
   14688   14706  -14694  -14709       2   14691   14694  -14688  -14697       2
   14865   14868  -14874  -14883       2   14856   14874  -14865  -14877       2
   14841   14844  -14856  -14865       2   14820   14856  -14841  -14859       2
   14805   14835  -14820  -14841       2   14796   14820  -14805  -14823       2
   14796   14814  -14802  -14817       2   14799   14802  -14796  -14805       2
   14973   14976  -14982  -14991       2   14964   14982  -14973  -14985       2
   14949   14952  -14964  -14973       2   14928   14964  -14949  -14967       2
   14913   14943  -14928  -14949       2   14904   14928  -14913  -14931       2
   14904   14922  -14910  -14925       2   14907   14910  -14904  -14913       2
   15081   15084  -15090  -15099       2   15072   15090  -15081  -15093       2
   15057   15060  -15072  -15081       2   15036   15072  -15057  -15075       2
   15021   15051  -15036  -15057       2   15012   15036  -15021  -15039       2
   15012   15030  -15018  -15033       2   15015   15018  -15012  -15021       2
   15189   15192  -15198  -15207       2   15180   15198  -15189  -15201       2
   15165   15168  -15180  -15189       2   15144   15180  -15165  -15183       2
   15129   15159  -15144  -15165       2   15120   15144  -15129  -15147       2
   15120   15138  -15126  -15141       2   15123   15126  -15120  -15129       2
   15297   15300  -15306  -15315       2   15288   15306  -15297  -15309       2
   15273   15276  -15288  -15297       2   15252   15288  -15273  -15291       2
   15237   15267  -15252  -15273       2   15228   15252  -15237  -15255       2
   15228   15246  -15234  -15249       2   15231   15234  -15228  -15237       2
   15405   15408  -15414  -15423       2   15396   15414  -15405  -15417       2
   15381   15384  -15396  -15405       2   15360   15396  -15381  -15399       2
   15345   15375  -15360  -15381       2   15336   15360  -15345  -15363       2
   15336   15354  -15342  -15357       2   15339   15342  -15336  -15345       2
   15513   15516  -15522  -15531       2   15504   15522  -15513  -15525       2
   15489   15492  -15504  -15513       2   15468   15504  -15489  -15507       2
   15453   15483  -15468  -15489       2   15444   15468  -15453  -15471       2
   15444   15462  -15450  -15465       2   15447   15450  -15444  -15453       2
   15621   15624  -15630  -15639       2   15612   15630  -15621  -15633       2
   15597   15600  -15612  -15621       2   15576   15612  -15597  -15615       2
   15561   15591  -15576  -15597       2   15552   15576  -15561  -15579       2
   15552   15570  -15558  -15573       2   15555   15558  -15552  -15561       2
   15729   15732  -15738  -15747       2   15720   15738  -15729  -15741       2
   15705   15708  -15720  -15729       2   15684   15720  -15705  -15723       2
   15669   15699  -15684  -15705       2   15660   15684  -15669  -15687       2
   15660   15678  -15666  -15681       2   15663   15666  -15660  -15669       2
   15837   15840  -15846  -15855       2   15828   15846  -15837  -15849       2
   15813   15816  -15828  -15837       2   15792   15828  -15813  -15831       2
   15777   15807  -15792  -15813       2   15768   15792  -15777  -15795       2
   15768   15786  -15774  -15789       2   15771   15774  -15768  -15777       2
   15945   15948  -15954  -15963       2   15936   15954  -15945  -15957       2
   15921   15924  -15936  -15945       2   15900   15936  -15921  -15939       2
   15885   15915  -15900  -15921       2   15876   15900  -15885  -15903       2
   15876   15894  -15882  -15897       2   15879   15882  -15876  -15885       2
   16053   16056  -16062  -16071       2   16044   16062  -16053  -16065       2
   16029   16032  -16044  -16053       2   16008   16044  -16029  -16047       2
   15993   16023  -16008  -16029       2   15984   16008  -15993  -16011       2
   15984   16002  -15990  -16005       2   15987   15990  -15984  -15993       2
   16161   16164  -16170  -16179       2   16152   16170  -16161  -16173       2
   16137   16140  -16152  -16161       2   16116   16152  -16137  -16155       2
   16101   16131  -16116  -16137       2   16092   16116  -16101  -16119       2
   16092   16110  -16098  -16113       2   16095   16098  -16092  -16101       2
   16269   16272  -16278  -16287       2   16260   16278  -16269  -16281       2
   16245   16248  -16260  -16269       2   16224   16260  -16245  -16263       2
   16209   16239  -16224  -16245       2   16200   16224  -16209  -16227       2
   16200   16218  -16206  -16221       2   16203   16206  -16200  -16209       2
   16377   16380  -16386  -16395       2   16368   16386  -16377  -16389       2
   16353   16356  -16368  -16377       2   16332   16368  -16353  -16371       2
   16317   16347  -16332  -16353       2   16308   16332  -16317  -16335       2
   16308   16326  -16314  -16329       2   16311   16314  -16308  -16317       2
   16485   16488  -16494  -16503       2   16476   16494  -16485  -16497       2
   16461   16464  -16476  -16485       2   16440   16476  -16461  -16479       2
   16425   16455  -16440  -16461       2   16416   16440  -16425  -16443       2
   16416   16434  -16422  -16437       2   16419   16422  -16416  -16425       2
   16593   16596  -16602  -16611       2   16584   16602  -16593  -16605       2
   16569   16572  -16584  -16593       2   16548   16584  -16569  -16587       2
   16533   16563  -16548  -16569       2   16524   16548  -16533  -16551       2
   16524   16542  -16530  -16545       2   16527   16530  -16524  -16533       2
   16701   16704  -16710  -16719       2   16692   16710  -16701  -16713       2
   16677   16680  -16692  -16701       2   16656   16692  -16677  -16695       2
   16641   16671  -16656  -16677       2   16632   16656  -16641  -16659       2
   16632   16650  -16638  -16653       2   16635   16638  -16632  -16641       2
   16809   16812  -16818  -16827       2   16800   16818  -16809  -16821       2
   16785   16788  -16800  -16809       2   16764   16800  -16785  -16803       2
   16749   16779  -16764  -16785       2   16740   16764  -16749  -16767       2
   16740   16758  -16746  -16761       2   16743   16746  -16740  -16749       2
   16917   16920  -16926  -16935       2   16908   16926  -16917  -16929       2
   16893   16896  -16908  -16917       2   16872   16908  -16893  -16911       2
   16857   16887  -16872  -16893       2   16848   16872  -16857  -16875       2
   16848   16866  -16854  -16869       2   16851   16854  -16848  -16857       2
   17025   17028  -17034  -17043       2   17016   17034  -17025  -17037       2
   17001   17004  -17016  -17025       2   16980   17016  -17001  -17019       2
   16965   16995  -16980  -17001       2   16956   16980  -16965  -16983       2
   16956   16974  -16962  -16977       2   16959   16962  -16956  -16965       2
   17133   17136  -17142  -17151       2   17124   17142  -17133  -17145       2
   17109   17112  -17124  -17133       2   17088   17124  -17109  -17127       2
   17073   17103  -17088  -17109       2   17064   17088  -17073  -17091       2
   17064   17082  -17070  -17085       2   17067   17070  -17064  -17073       2
   17241   17244  -17250  -17259       2   17232   17250  -17241  -17253       2
   17217   17220  -17232  -17241       2   17196   17232  -17217  -17235       2
   17181   17211  -17196  -17217       2   17172   17196  -17181  -17199       2
   17172   17190  -17178  -17193       2   17175   17178  -17172  -17181       2
   17349   17352  -17358  -17367       2   17340   17358  -17349  -17361       2
   17325   17328  -17340  -17349       2   17304   17340  -17325  -17343       2
   17289   17319  -17304  -17325       2   17280   17304  -17289  -17307       2
   17280   17298  -17286  -17301       2   17283   17286  -17280  -17289       2
   17457   17460  -17466  -17475       2   17448   17466  -17457  -17469       2
   17433   17436  -17448  -17457       2   17412   17448  -17433  -17451       2
   17397   17427  -17412  -17433       2   17388   17412  -17397  -17415       2
   17388   17406  -17394  -17409       2   17391   17394  -17388  -17397       2
   17565   17568  -17574  -17583       2   17556   17574  -17565  -17577       2
   17541   17544  -17556  -17565       2   17520   17556  -17541  -17559       2
   17505   17535  -17520  -17541       2   17496   17520  -17505  -17523       2
   17496   17514  -17502  -17517       2   17499   17502  -17496  -17505       2
   17673   17676  -17682  -17691       2   17664   17682  -17673  -17685       2
   17649   17652  -17664  -17673       2   17628   17664  -17649  -17667       2
   17613   17643  -17628  -17649       2   17604   17628  -17613  -17631       2
   17604   17622  -17610  -17625       2   17607   17610  -17604  -17613       2
   17781   17784  -17790  -17799       2   17772   17790  -17781  -17793       2
   17757   17760  -17772  -17781       2   17736   17772  -17757  -17775       2
   17721   17751  -17736  -17757       2   17712   17736  -17721  -17739       2
   17712   17730  -17718  -17733       2   17715   17718  -17712  -17721       2
   17889   17892  -17898  -17907       2   17880   17898  -17889  -17901       2
   17865   17868  -17880  -17889       2   17844   17880  -17865  -17883       2
   17829   17859  -17844  -17865       2   17820   17844  -17829  -17847       2
   17820   17838  -17826  -17841       2   17823   17826  -17820  -17829       2
   17997   18000  -18006  -18015       2   17988   18006  -17997  -18009       2
   17973   17976  -17988  -17997       2   17952   17988  -17973  -17991       2
   17937   17967  -17952  -17973       2   17928   17952  -17937  -17955       2
   17928   17946  -17934  -17949       2   17931   17934  -17928  -17937       2
   18105   18108  -18114  -18123       2   18096   18114  -18105  -18117       2
   18081   18084  -18096  -18105       2   18060   18096  -18081  -18099       2
   18045   18075  -18060  -18081       2   18036   18060  -18045  -18063       2
   18036   18054  -18042  -18057       2   18039   18042  -18036  -18045       2
   18213   18216  -18222  -18231       2   18204   18222  -18213  -18225       2
   18189   18192  -18204  -18213       2   18168   18204  -18189  -18207       2
   18153   18183  -18168  -18189       2   18144   18168  -18153  -18171       2
   18144   18162  -18150  -18165       2   18147   18150  -18144  -18153       2
   18321   18324  -18330  -18339       2   18312   18330  -18321  -18333       2
   18297   18300  -18312  -18321       2   18276   18312  -18297  -18315       2
   18261   18291  -18276  -18297       2   18252   18276  -18261  -18279       2
   18252   18270  -18258  -18273       2   18255   18258  -18252  -18261       2
   18429   18432  -18438  -18447       2   18420   18438  -18429  -18441       2
   18405   18408  -18420  -18429       2   18384   18420  -18405  -18423       2
   18369   18399  -18384  -18405       2   18360   18384  -18369  -18387       2
   18360   18378  -18366  -18381       2   18363   18366  -18360  -18369       2
   18537   18540  -18546  -18555       2   18528   18546  -18537  -18549       2
   18513   18516  -18528  -18537       2   18492   18528  -18513  -18531       2
   18477   18507  -18492  -18513       2   18468   18492  -18477  -18495       2
   18468   18486  -18474  -18489       2   18471   18474  -18468  -18477       2
   18645   18648  -18654  -18663       2   18636   18654  -18645  -18657       2
   18621   18624  -18636  -18645       2   18600   18636  -18621  -18639       2
   18585   18615  -18600  -18621       2   18576   18600  -18585  -18603       2
   18576   18594  -18582  -18597       2   18579   18582  -18576  -18585       2
   18753   18756  -18762  -18771       2   18744   18762  -18753  -18765       2
   18729   18732  -18744  -18753       2   18708   18744  -18729  -18747       2
   18693   18723  -18708  -18729       2   18684   18708  -18693  -18711       2
   18684   18702  -18690  -18705       2   18687   18690  -18684  -18693       2
   18861   18864  -18870  -18879       2   18852   18870  -18861  -18873       2
   18837   18840  -18852  -18861       2   18816   18852  -18837  -18855       2
   18801   18831  -18816  -18837       2   18792   18816  -18801  -18819       2
   18792   18810  -18798  -18813       2   18795   18798  -18792  -18801       2
   18969   18972  -18978  -18987       2   18960   18978  -18969  -18981       2
   18945   18948  -18960  -18969       2   18924   18960  -18945  -18963       2
   18909   18939  -18924  -18945       2   18900   18924  -18909  -18927       2
   18900   18918  -18906  -18921       2   18903   18906  -18900  -18909       2
   19077   19080  -19086  -19095       2   19068   19086  -19077  -19089       2
   19053   19056  -19068  -19077       2   19032   19068  -19053  -19071       2
   19017   19047  -19032  -19053       2   19008   19032  -19017  -19035       2
   19008   19026  -19014  -19029       2   19011   19014  -19008  -19017       2
   19185   19188  -19194  -19203       2   19176   19194  -19185  -19197       2
   19161   19164  -19176  -19185       2   19140   19176  -19161  -19179       2
   19125   19155  -19140  -19161       2   19116   19140  -19125  -19143       2
   19116   19134  -19122  -19137       2   19119   19122  -19116  -19125       2
   19293   19296  -19302  -19311       2   19284   19302  -19293  -19305       2
   19269   19272  -19284  -19293       2   19248   19284  -19269  -19287       2
   19233   19263  -19248  -19269       2   19224   19248  -19233  -19251       2
   19224   19242  -19230  -19245       2   19227   19230  -19224  -19233       2
   19401   19404  -19410  -19419       2   19392   19410  -19401  -19413       2
   19377   19380  -19392  -19401       2   19356   19392  -19377  -19395       2
   19341   19371  -19356  -19377       2   19332   19356  -19341  -19359       2
   19332   19350  -19338  -19353       2   19335   19338  -19332  -19341       2
   19509   19512  -19518  -19527       2   19500   19518  -19509  -19521       2
   19485   19488  -19500  -19509       2   19464   19500  -19485  -19503       2
   19449   19479  -19464  -19485       2   19440   19464  -19449  -19467       2
   19440   19458  -19446  -19461       2   19443   19446  -19440  -19449       2
   19617   19620  -19626  -19635       2   19608   19626  -19617  -19629       2
   19593   19596  -19608  -19617       2   19572   19608  -19593  -19611       2
   19557   19587  -19572  -19593       2   19548   19572  -19557  -19575       2
   19548   19566  -19554  -19569       2   19551   19554  -19548  -19557       2
   19725   19728  -19734  -19743       2   19716   19734  -19725  -19737       2
   19701   19704  -19716  -19725       2   19680   19716  -19701  -19719       2
   19665   19695  -19680  -19701       2   19656   19680  -19665  -19683       2
   19656   19674  -19662  -19677       2   19659   19662  -19656  -19665       2
   19833   19836  -19842  -19851       2   19824   19842  -19833  -19845       2
   19809   19812  -19824  -19833       2   19788   19824  -19809  -19827       2
   19773   19803  -19788  -19809       2   19764   19788  -19773  -19791       2
   19764   19782  -19770  -19785       2   19767   19770  -19764  -19773       2
   19941   19944  -19950  -19959       2   19932   19950  -19941  -19953       2
   19917   19920  -19932  -19941       2   19896   19932  -19917  -19935       2
   19881   19911  -19896  -19917       2   19872   19896  -19881  -19899       2
   19872   19890  -19878  -19893       2   19875   19878  -19872  -19881       2
   20049   20052  -20058  -20067       2   20040   20058  -20049  -20061       2
   20025   20028  -20040  -20049       2   20004   20040  -20025  -20043       2
   19989   20019  -20004  -20025       2   19980   20004  -19989  -20007       2
   19980   19998  -19986  -20001       2   19983   19986  -19980  -19989       2
   20157   20160  -20166  -20175       2   20148   20166  -20157  -20169       2
   20133   20136  -20148  -20157       2   20112   20148  -20133  -20151       2
   20097   20127  -20112  -20133       2   20088   20112  -20097  -20115       2
   20088   20106  -20094  -20109       2   20091   20094  -20088  -20097       2
   20265   20268  -20274  -20283       2   20256   20274  -20265  -20277       2
   20241   20244  -20256  -20265       2   20220   20256  -20241  -20259       2
   20205   20235  -20220  -20241       2   20196   20220  -20205  -20223       2
   20196   20214  -20202  -20217       2   20199   20202  -20196  -20205       2
   20373   20376  -20382  -20391       2   20364   20382  -20373  -20385       2
   20349   20352  -20364  -20373       2   20328   20364  -20349  -20367       2
   20313   20343  -20328  -20349       2   20304   20328  -20313  -20331       2
   20304   20322  -20310  -20325       2   20307   20310  -20304  -20313       2
   20481   20484  -20490  -20499       2   20472   20490  -20481  -20493       2
   20457   20460  -20472  -20481       2   20436   20472  -20457  -20475       2
   20421   20451  -20436  -20457       2   20412   20436  -20421  -20439       2
   20412   20430  -20418  -20433       2   20415   20418  -20412  -20421       2
   20589   20592  -20598  -20607       2   20580   20598  -20589  -20601       2
   20565   20568  -20580  -20589       2   20544   20580  -20565  -20583       2
   20529   20559  -20544  -20565       2   20520   20544  -20529  -20547       2
   20520   20538  -20526  -20541       2   20523   20526  -20520  -20529       2
   20697   20700  -20706  -20715       2   20688   20706  -20697  -20709       2
   20673   20676  -20688  -20697       2   20652   20688  -20673  -20691       2
   20637   20667  -20652  -20673       2   20628   20652  -20637  -20655       2
   20628   20646  -20634  -20649       2   20631   20634  -20628  -20637       2
   20805   20808  -20814  -20823       2   20796   20814  -20805  -20817       2
   20781   20784  -20796  -20805       2   20760   20796  -20781  -20799       2
   20745   20775  -20760  -20781       2   20736   20760  -20745  -20763       2
   20736   20754  -20742  -20757       2   20739   20742  -20736  -20745       2
   20913   20916  -20922  -20931       2   20904   20922  -20913  -20925       2
   20889   20892  -20904  -20913       2   20868   20904  -20889  -20907       2
   20853   20883  -20868  -20889       2   20844   20868  -20853  -20871       2
   20844   20862  -20850  -20865       2   20847   20850  -20844  -20853       2
   21021   21024  -21030  -21039       2   21012   21030  -21021  -21033       2
   20997   21000  -21012  -21021       2   20976   21012  -20997  -21015       2
   20961   20991  -20976  -20997       2   20952   20976  -20961  -20979       2
   20952   20970  -20958  -20973       2   20955   20958  -20952  -20961       2
   21129   21132  -21138  -21147       2   21120   21138  -21129  -21141       2
   21105   21108  -21120  -21129       2   21084   21120  -21105  -21123       2
   21069   21099  -21084  -21105       2   21060   21084  -21069  -21087       2
   21060   21078  -21066  -21081       2   21063   21066  -21060  -21069       2
   21237   21240  -21246  -21255       2   21228   21246  -21237  -21249       2
   21213   21216  -21228  -21237       2   21192   21228  -21213  -21231       2
   21177   21207  -21192  -21213       2   21168   21192  -21177  -21195       2
   21168   21186  -21174  -21189       2   21171   21174  -21168  -21177       2
   21345   21348  -21354  -21363       2   21336   21354  -21345  -21357       2
   21321   21324  -21336  -21345       2   21300   21336  -21321  -21339       2
   21285   21315  -21300  -21321       2   21276   21300  -21285  -21303       2
   21276   21294  -21282  -21297       2   21279   21282  -21276  -21285       2
   21453   21456  -21462  -21471       2   21444   21462  -21453  -21465       2
   21429   21432  -21444  -21453       2   21408   21444  -21429  -21447       2
   21393   21423  -21408  -21429       2   21384   21408  -21393  -21411       2
   21384   21402  -21390  -21405       2   21387   21390  -21384  -21393       2
   21561   21564  -21570  -21579       2   21552   21570  -21561  -21573       2
   21537   21540  -21552  -21561       2   21516   21552  -21537  -21555       2
   21501   21531  -21516  -21537       2   21492   21516  -21501  -21519       2
   21492   21510  -21498  -21513       2   21495   21498  -21492  -21501       2
   21669   21672  -21678  -21687       2   21660   21678  -21669  -21681       2
   21645   21648  -21660  -21669       2   21624   21660  -21645  -21663       2
   21609   21639  -21624  -21645       2   21600   21624  -21609  -21627       2
   21600   21618  -21606  -21621       2   21603   21606  -21600  -21609       2
   21777   21780  -21786  -21795       2   21768   21786  -21777  -21789       2
   21753   21756  -21768  -21777       2   21732   21768  -21753  -21771       2
   21717   21747  -21732  -21753       2   21708   21732  -21717  -21735       2
   21708   21726  -21714  -21729       2   21711   21714  -21708  -21717       2
   21885   21888  -21894  -21903       2   21876   21894  -21885  -21897       2
   21861   21864  -21876  -21885       2   21840   21876  -21861  -21879       2
   21825   21855  -21840  -21861       2   21816   21840  -21825  -21843       2
   21816   21834  -21822  -21837       2   21819   21822  -21816  -21825       2
   21993   21996  -22002  -22011       2   21984   22002  -21993  -22005       2
   21969   21972  -21984  -21993       2   21948   21984  -21969  -21987       2
   21933   21963  -21948  -21969       2   21924   21948  -21933  -21951       2
   21924   21942  -21930  -21945       2   21927   21930  -21924  -21933       2
   22101   22104  -22110  -22119       2   22092   22110  -22101  -22113       2
   22077   22080  -22092  -22101       2   22056   22092  -22077  -22095       2
   22041   22071  -22056  -22077       2   22032   22056  -22041  -22059       2
   22032   22050  -22038  -22053       2   22035   22038  -22032  -22041       2
   22209   22212  -22218  -22227       2   22200   22218  -22209  -22221       2
   22185   22188  -22200  -22209       2   22164   22200  -22185  -22203       2
   22149   22179  -22164  -22185       2   22140   22164  -22149  -22167       2
   22140   22158  -22146  -22161       2   22143   22146  -22140  -22149       2
   22317   22320  -22326  -22335       2   22308   22326  -22317  -22329       2
   22293   22296  -22308  -22317       2   22272   22308  -22293  -22311       2
   22257   22287  -22272  -22293       2   22248   22272  -22257  -22275       2
   22248   22266  -22254  -22269       2   22251   22254  -22248  -22257       2
   22425   22428  -22434  -22443       2   22416   22434  -22425  -22437       2
   22401   22404  -22416  -22425       2   22380   22416  -22401  -22419       2
   22365   22395  -22380  -22401       2   22356   22380  -22365  -22383       2
   22356   22374  -22362  -22377       2   22359   22362  -22356  -22365       2
   22533   22536  -22542  -22551       2   22524   22542  -22533  -22545       2
   22509   22512  -22524  -22533       2   22488   22524  -22509  -22527       2
   22473   22503  -22488  -22509       2   22464   22488  -22473  -22491       2
   22464   22482  -22470  -22485       2   22467   22470  -22464  -22473       2
   22641   22644  -22650  -22659       2   22632   22650  -22641  -22653       2
   22617   22620  -22632  -22641       2   22596   22632  -22617  -22635       2
   22581   22611  -22596  -22617       2   22572   22596  -22581  -22599       2
   22572   22590  -22578  -22593       2   22575   22578  -22572  -22581       2
   22749   22752  -22758  -22767       2   22740   22758  -22749  -22761       2
   22725   22728  -22740  -22749       2   22704   22740  -22725  -22743       2
   22689   22719  -22704  -22725       2   22680   22704  -22689  -22707       2
   22680   22698  -22686  -22701       2   22683   22686  -22680  -22689       2
   22857   22860  -22866  -22875       2   22848   22866  -22857  -22869       2
   22833   22836  -22848  -22857       2   22812   22848  -22833  -22851       2
   22797   22827  -22812  -22833       2   22788   22812  -22797  -22815       2
   22788   22806  -22794  -22809       2   22791   22794  -22788  -22797       2
   22965   22968  -22974  -22983       2   22956   22974  -22965  -22977       2
   22941   22944  -22956  -22965       2   22920   22956  -22941  -22959       2
   22905   22935  -22920  -22941       2   22896   22920  -22905  -22923       2
   22896   22914  -22902  -22917       2   22899   22902  -22896  -22905       2
   23073   23076  -23082  -23091       2   23064   23082  -23073  -23085       2
   23049   23052  -23064  -23073       2   23028   23064  -23049  -23067       2
   23013   23043  -23028  -23049       2   23004   23028  -23013  -23031       2
   23004   23022  -23010  -23025       2   23007   23010  -23004  -23013       2
   23181   23184  -23190  -23199       2   23172   23190  -23181  -23193       2
   23157   23160  -23172  -23181       2   23136   23172  -23157  -23175       2
   23121   23151  -23136  -23157       2   23112   23136  -23121  -23139       2
   23112   23130  -23118  -23133       2   23115   23118  -23112  -23121       2
   23289   23292  -23298  -23307       2   23280   23298  -23289  -23301       2
   23265   23268  -23280  -23289       2   23244   23280  -23265  -23283       2
   23229   23259  -23244  -23265       2   23220   23244  -23229  -23247       2
   23220   23238  -23226  -23241       2   23223   23226  -23220  -23229       2
   23397   23400  -23406  -23415       2   23388   23406  -23397  -23409       2
   23373   23376  -23388  -23397       2   23352   23388  -23373  -23391       2
   23337   23367  -23352  -23373       2   23328   23352  -23337  -23355       2
   23328   23346  -23334  -23349       2   23331   23334  -23328  -23337       2
   23505   23508  -23514  -23523       2   23496   23514  -23505  -23517       2
   23481   23484  -23496  -23505       2   23460   23496  -23481  -23499       2
   23445   23475  -23460  -23481       2   23436   23460  -23445  -23463       2
   23436   23454  -23442  -23457       2   23439   23442  -23436  -23445       2
   23613   23616  -23622  -23631       2   23604   23622  -23613  -23625       2
   23589   23592  -23604  -23613       2   23568   23604  -23589  -23607       2
   23553   23583  -23568  -23589       2   23544   23568  -23553  -23571       2
   23544   23562  -23550  -23565       2   23547   23550  -23544  -23553       2
   23721   23724  -23730  -23739       2   23712   23730  -23721  -23733       2
   23697   23700  -23712  -23721       2   23676   23712  -23697  -23715       2
   23661   23691  -23676  -23697       2   23652   23676  -23661  -23679       2
   23652   23670  -23658  -23673       2   23655   23658  -23652  -23661       2
   23829   23832  -23838  -23847       2   23820   23838  -23829  -23841       2
   23805   23808  -23820  -23829       2   23784   23820  -23805  -23823       2
   23769   23799  -23784  -23805       2   23760   23784  -23769  -23787       2
   23760   23778  -23766  -23781       2   23763   23766  -23760  -23769       2
   23937   23940  -23946  -23955       2   23928   23946  -23937  -23949       2
   23913   23916  -23928  -23937       2   23892   23928  -23913  -23931       2
   23877   23907  -23892  -23913       2   23868   23892  -23877  -23895       2
   23868   23886  -23874  -23889       2   23871   23874  -23868  -23877       2
   24045   24048  -24054  -24063       2   24036   24054  -24045  -24057       2
   24021   24024  -24036  -24045       2   24000   24036  -24021  -24039       2
   23985   24015  -24000  -24021       2   23976   24000  -23985  -24003       2
   23976   23994  -23982  -23997       2   23979   23982  -23976  -23985       2
   24153   24156  -24162  -24171       2   24144   24162  -24153  -24165       2
   24129   24132  -24144  -24153       2   24108   24144  -24129  -24147       2
   24093   24123  -24108  -24129       2   24084   24108  -24093  -24111       2
   24084   24102  -24090  -24105       2   24087   24090  -24084  -24093       2
   24261   24264  -24270  -24279       2   24252   24270  -24261  -24273       2
   24237   24240  -24252  -24261       2   24216   24252  -24237  -24255       2
   24201   24231  -24216  -24237       2   24192   24216  -24201  -24219       2
   24192   24210  -24198  -24213       2   24195   24198  -24192  -24201       2
   24369   24372  -24378  -24387       2   24360   24378  -24369  -24381       2
   24345   24348  -24360  -24369       2   24324   24360  -24345  -24363       2
   24309   24339  -24324  -24345       2   24300   24324  -24309  -24327       2
   24300   24318  -24306  -24321       2   24303   24306  -24300  -24309       2
   24477   24480  -24486  -24495       2   24468   24486  -24477  -24489       2
   24453   24456  -24468  -24477       2   24432   24468  -24453  -24471       2
   24417   24447  -24432  -24453       2   24408   24432  -24417  -24435       2
   24408   24426  -24414  -24429       2   24411   24414  -24408  -24417       2
   24585   24588  -24594  -24603       2   24576   24594  -24585  -24597       2
   24561   24564  -24576  -24585       2   24540   24576  -24561  -24579       2
   24525   24555  -24540  -24561       2   24516   24540  -24525  -24543       2
   24516   24534  -24522  -24537       2   24519   24522  -24516  -24525       2
   24693   24696  -24702  -24711       2   24684   24702  -24693  -24705       2
   24669   24672  -24684  -24693       2   24648   24684  -24669  -24687       2
   24633   24663  -24648  -24669       2   24624   24648  -24633  -24651       2
   24624   24642  -24630  -24645       2   24627   24630  -24624  -24633       2
   24801   24804  -24810  -24819       2   24792   24810  -24801  -24813       2
   24777   24780  -24792  -24801       2   24756   24792  -24777  -24795       2
   24741   24771  -24756  -24777       2   24732   24756  -24741  -24759       2
   24732   24750  -24738  -24753       2   24735   24738  -24732  -24741       2
   24909   24912  -24918  -24927       2   24900   24918  -24909  -24921       2
   24885   24888  -24900  -24909       2   24864   24900  -24885  -24903       2
   24849   24879  -24864  -24885       2   24840   24864  -24849  -24867       2
   24840   24858  -24846  -24861       2   24843   24846  -24840  -24849       2
   25017   25020  -25026  -25035       2   25008   25026  -25017  -25029       2
   24993   24996  -25008  -25017       2   24972   25008  -24993  -25011       2
   24957   24987  -24972  -24993       2   24948   24972  -24957  -24975       2
   24948   24966  -24954  -24969       2   24951   24954  -24948  -24957       2
   25125   25128  -25134  -25143       2   25116   25134  -25125  -25137       2
   25101   25104  -25116  -25125       2   25080   25116  -25101  -25119       2
   25065   25095  -25080  -25101       2   25056   25080  -25065  -25083       2
   25056   25074  -25062  -25077       2   25059   25062  -25056  -25065       2
   25233   25236  -25242  -25251       2   25224   25242  -25233  -25245       2
   25209   25212  -25224  -25233       2   25188   25224  -25209  -25227       2
   25173   25203  -25188  -25209       2   25164   25188  -25173  -25191       2
   25164   25182  -25170  -25185       2   25167   25170  -25164  -25173       2
   25341   25344  -25350  -25359       2   25332   25350  -25341  -25353       2
   25317   25320  -25332  -25341       2   25296   25332  -25317  -25335       2
   25281   25311  -25296  -25317       2   25272   25296  -25281  -25299       2
   25272   25290  -25278  -25293       2   25275   25278  -25272  -25281       2
   25449   25452  -25458  -25467       2   25440   25458  -25449  -25461       2
   25425   25428  -25440  -25449       2   25404   25440  -25425  -25443       2
   25389   25419  -25404  -25425       2   25380   25404  -25389  -25407       2
   25380   25398  -25386  -25401       2   25383   25386  -25380  -25389       2
   25557   25560  -25566  -25575       2   25548   25566  -25557  -25569       2
   25533   25536  -25548  -25557       2   25512   25548  -25533  -25551       2
   25497   25527  -25512  -25533       2   25488   25512  -25497  -25515       2
   25488   25506  -25494  -25509       2   25491   25494  -25488  -25497       2
   25665   25668  -25674  -25683       2   25656   25674  -25665  -25677       2
   25641   25644  -25656  -25665       2   25620   25656  -25641  -25659       2
   25605   25635  -25620  -25641       2   25596   25620  -25605  -25623       2
   25596   25614  -25602  -25617       2   25599   25602  -25596  -25605       2
   25773   25776  -25782  -25791       2   25764   25782  -25773  -25785       2
   25749   25752  -25764  -25773       2   25728   25764  -25749  -25767       2
   25713   25743  -25728  -25749       2   25704   25728  -25713  -25731       2
   25704   25722  -25710  -25725       2   25707   25710  -25704  -25713       2
   25881   25884  -25890  -25899       2   25872   25890  -25881  -25893       2
   25857   25860  -25872  -25881       2   25836   25872  -25857  -25875       2
   25821   25851  -25836  -25857       2   25812   25836  -25821  -25839       2
   25812   25830  -25818  -25833       2   25815   25818  -25812  -25821       2
   25989   25992  -25998  -26007       2   25980   25998  -25989  -26001       2
   25965   25968  -25980  -25989       2   25944   25980  -25965  -25983       2
   25929   25959  -25944  -25965       2   25920   25944  -25929  -25947       2
   25920   25938  -25926  -25941       2   25923   25926  -25920  -25929       2
   26097   26100  -26106  -26115       2   26088   26106  -26097  -26109       2
   26073   26076  -26088  -26097       2   26052   26088  -26073  -26091       2
   26037   26067  -26052  -26073       2   26028   26052  -26037  -26055       2
   26028   26046  -26034  -26049       2   26031   26034  -26028  -26037       2
   26205   26208  -26214  -26223       2   26196   26214  -26205  -26217       2
   26181   26184  -26196  -26205       2   26160   26196  -26181  -26199       2
   26145   26175  -26160  -26181       2   26136   26160  -26145  -26163       2
   26136   26154  -26142  -26157       2   26139   26142  -26136  -26145       2
   26313   26316  -26322  -26331       2   26304   26322  -26313  -26325       2
   26289   26292  -26304  -26313       2   26268   26304  -26289  -26307       2
   26253   26283  -26268  -26289       2   26244   26268  -26253  -26271       2
   26244   26262  -26250  -26265       2   26247   26250  -26244  -26253       2
   26421   26424  -26430  -26439       2   26412   26430  -26421  -26433       2
   26397   26400  -26412  -26421       2   26376   26412  -26397  -26415       2
   26361   26391  -26376  -26397       2   26352   26376  -26361  -26379       2
   26352   26370  -26358  -26373       2   26355   26358  -26352  -26361       2
   26529   26532  -26538  -26547       2   26520   26538  -26529  -26541       2
   26505   26508  -26520  -26529       2   26484   26520  -26505  -26523       2
   26469   26499  -26484  -26505       2   26460   26484  -26469  -26487       2
   26460   26478  -26466  -26481       2   26463   26466  -26460  -26469       2
   26637   26640  -26646  -26655       2   26628   26646  -26637  -26649       2
   26613   26616  -26628  -26637       2   26592   26628  -26613  -26631       2
   26577   26607  -26592  -26613       2   26568   26592  -26577  -26595       2
   26568   26586  -26574  -26589       2   26571   26574  -26568  -26577       2
   26745   26748  -26754  -26763       2   26736   26754  -26745  -26757       2
   26721   26724  -26736  -26745       2   26700   26736  -26721  -26739       2
   26685   26715  -26700  -26721       2   26676   26700  -26685  -26703       2
   26676   26694  -26682  -26697       2   26679   26682  -26676  -26685       2
   26853   26856  -26862  -26871       2   26844   26862  -26853  -26865       2
   26829   26832  -26844  -26853       2   26808   26844  -26829  -26847       2
   26793   26823  -26808  -26829       2   26784   26808  -26793  -26811       2
   26784   26802  -26790  -26805       2   26787   26790  -26784  -26793       2
   26961   26964  -26970  -26979       2   26952   26970  -26961  -26973       2
   26937   26940  -26952  -26961       2   26916   26952  -26937  -26955       2
   26901   26931  -26916  -26937       2   26892   26916  -26901  -26919       2
   26892   26910  -26898  -26913       2   26895   26898  -26892  -26901       2
   27069   27072  -27078  -27087       2   27060   27078  -27069  -27081       2
   27045   27048  -27060  -27069       2   27024   27060  -27045  -27063       2
   27009   27039  -27024  -27045       2   27000   27024  -27009  -27027       2
   27000   27018  -27006  -27021       2   27003   27006  -27000  -27009       2
   27177   27180  -27186  -27195       2   27168   27186  -27177  -27189       2
   27153   27156  -27168  -27177       2   27132   27168  -27153  -27171       2
   27117   27147  -27132  -27153       2   27108   27132  -27117  -27135       2
   27108   27126  -27114  -27129       2   27111   27114  -27108  -27117       2
   27285   27288  -27294  -27303       2   27276   27294  -27285  -27297       2
   27261   27264  -27276  -27285       2   27240   27276  -27261  -27279       2
   27225   27255  -27240  -27261       2   27216   27240  -27225  -27243       2
   27216   27234  -27222  -27237       2   27219   27222  -27216  -27225       2
   27393   27396  -27402  -27411       2   27384   27402  -27393  -27405       2
   27369   27372  -27384  -27393       2   27348   27384  -27369  -27387       2
   27333   27363  -27348  -27369       2   27324   27348  -27333  -27351       2
   27324   27342  -27330  -27345       2   27327   27330  -27324  -27333       2
   27501   27504  -27510  -27519       2   27492   27510  -27501  -27513       2
   27477   27480  -27492  -27501       2   27456   27492  -27477  -27495       2
   27441   27471  -27456  -27477       2   27432   27456  -27441  -27459       2
   27432   27450  -27438  -27453       2   27435   27438  -27432  -27441       2
   27609   27612  -27618  -27627       2   27600   27618  -27609  -27621       2
   27585   27588  -27600  -27609       2   27564   27600  -27585  -27603       2
   27549   27579  -27564  -27585       2   27540   27564  -27549  -27567       2
   27540   27558  -27546  -27561       2   27543   27546  -27540  -27549       2
   27717   27720  -27726  -27735       2   27708   27726  -27717  -27729       2
   27693   27696  -27708  -27717       2   27672   27708  -27693  -27711       2
   27657   27687  -27672  -27693       2   27648   27672  -27657  -27675       2
   27648   27666  -27654  -27669       2   27651   27654  -27648  -27657       2
   27825   27828  -27834  -27843       2   27816   27834  -27825  -27837       2
   27801   27804  -27816  -27825       2   27780   27816  -27801  -27819       2
   27765   27795  -27780  -27801       2   27756   27780  -27765  -27783       2
   27756   27774  -27762  -27777       2   27759   27762  -27756  -27765       2
   27933   27936  -27942  -27951       2   27924   27942  -27933  -27945       2
   27909   27912  -27924  -27933       2   27888   27924  -27909  -27927       2
   27873   27903  -27888  -27909       2   27864   27888  -27873  -27891       2
   27864   27882  -27870  -27885       2   27867   27870  -27864  -27873       2
   28041   28044  -28050  -28059       2   28032   28050  -28041  -28053       2
   28017   28020  -28032  -28041       2   27996   28032  -28017  -28035       2
   27981   28011  -27996  -28017       2   27972   27996  -27981  -27999       2
   27972   27990  -27978  -27993       2   27975   27978  -27972  -27981       2
   28149   28152  -28158  -28167       2   28140   28158  -28149  -28161       2
   28125   28128  -28140  -28149       2   28104   28140  -28125  -28143       2
   28089   28119  -28104  -28125       2   28080   28104  -28089  -28107       2
   28080   28098  -28086  -28101       2   28083   28086  -28080  -28089       2
   28257   28260  -28266  -28275       2   28248   28266  -28257  -28269       2
   28233   28236  -28248  -28257       2   28212   28248  -28233  -28251       2
   28197   28227  -28212  -28233       2   28188   28212  -28197  -28215       2
   28188   28206  -28194  -28209       2   28191   28194  -28188  -28197       2
   28365   28368  -28374  -28383       2   28356   28374  -28365  -28377       2
   28341   28344  -28356  -28365       2   28320   28356  -28341  -28359       2
   28305   28335  -28320  -28341       2   28296   28320  -28305  -28323       2
   28296   28314  -28302  -28317       2   28299   28302  -28296  -28305       2
   28473   28476  -28482  -28491       2   28464   28482  -28473  -28485       2
   28449   28452  -28464  -28473       2   28428   28464  -28449  -28467       2
   28413   28443  -28428  -28449       2   28404   28428  -28413  -28431       2
   28404   28422  -28410  -28425       2   28407   28410  -28404  -28413       2
   28581   28584  -28590  -28599       2   28572   28590  -28581  -28593       2
   28557   28560  -28572  -28581       2   28536   28572  -28557  -28575       2
   28521   28551  -28536  -28557       2   28512   28536  -28521  -28539       2
   28512   28530  -28518  -28533       2   28515   28518  -28512  -28521       2
   28689   28692  -28698  -28707       2   28680   28698  -28689  -28701       2
   28665   28668  -28680  -28689       2   28644   28680  -28665  -28683       2
   28629   28659  -28644  -28665       2   28620   28644  -28629  -28647       2
   28620   28638  -28626  -28641       2   28623   28626  -28620  -28629       2
   28797   28800  -28806  -28815       2   28788   28806  -28797  -28809       2
   28773   28776  -28788  -28797       2   28752   28788  -28773  -28791       2
   28737   28767  -28752  -28773       2   28728   28752  -28737  -28755       2
   28728   28746  -28734  -28749       2   28731   28734  -28728  -28737       2
   28905   28908  -28914  -28923       2   28896   28914  -28905  -28917       2
   28881   28884  -28896  -28905       2   28860   28896  -28881  -28899       2
   28845   28875  -28860  -28881       2   28836   28860  -28845  -28863       2
   28836   28854  -28842  -28857       2   28839   28842  -28836  -28845       2
   29013   29016  -29022  -29031       2   29004   29022  -29013  -29025       2
   28989   28992  -29004  -29013       2   28968   29004  -28989  -29007       2
   28953   28983  -28968  -28989       2   28944   28968  -28953  -28971       2
   28944   28962  -28950  -28965       2   28947   28950  -28944  -28953       2
   29121   29124  -29130  -29139       2   29112   29130  -29121  -29133       2
   29097   29100  -29112  -29121       2   29076   29112  -29097  -29115       2
   29061   29091  -29076  -29097       2   29052   29076  -29061  -29079       2
   29052   29070  -29058  -29073       2   29055   29058  -29052  -29061       2
   29229   29232  -29238  -29247       2   29220   29238  -29229  -29241       2
   29205   29208  -29220  -29229       2   29184   29220  -29205  -29223       2
   29169   29199  -29184  -29205       2   29160   29184  -29169  -29187       2
   29160   29178  -29166  -29181       2   29163   29166  -29160  -29169       2
   29337   29340  -29346  -29355       2   29328   29346  -29337  -29349       2
   29313   29316  -29328  -29337       2   29292   29328  -29313  -29331       2
   29277   29307  -29292  -29313       2   29268   29292  -29277  -29295       2
   29268   29286  -29274  -29289       2   29271   29274  -29268  -29277       2
   29445   29448  -29454  -29463       2   29436   29454  -29445  -29457       2
   29421   29424  -29436  -29445       2   29400   29436  -29421  -29439       2
   29385   29415  -29400  -29421       2   29376   29400  -29385  -29403       2
   29376   29394  -29382  -29397       2   29379   29382  -29376  -29385       2
   29553   29556  -29562  -29571       2   29544   29562  -29553  -29565       2
   29529   29532  -29544  -29553       2   29508   29544  -29529  -29547       2
   29493   29523  -29508  -29529       2   29484   29508  -29493  -29511       2
   29484   29502  -29490  -29505       2   29487   29490  -29484  -29493       2
   29661   29664  -29670  -29679       2   29652   29670  -29661  -29673       2
   29637   29640  -29652  -29661       2   29616   29652  -29637  -29655       2
   29601   29631  -29616  -29637       2   29592   29616  -29601  -29619       2
   29592   29610  -29598  -29613       2   29595   29598  -29592  -29601       2
   29769   29772  -29778  -29787       2   29760   29778  -29769  -29781       2
   29745   29748  -29760  -29769       2   29724   29760  -29745  -29763       2
   29709   29739  -29724  -29745       2   29700   29724  -29709  -29727       2
   29700   29718  -29706  -29721       2   29703   29706  -29700  -29709       2
   29877   29880  -29886  -29895       2   29868   29886  -29877  -29889       2
   29853   29856  -29868  -29877       2   29832   29868  -29853  -29871       2
   29817   29847  -29832  -29853       2   29808   29832  -29817  -29835       2
   29808   29826  -29814  -29829       2   29811   29814  -29808  -29817       2
   29985   29988  -29994  -30003       2   29976   29994  -29985  -29997       2
   29961   29964  -29976  -29985       2   29940   29976  -29961  -29979       2
   29925   29955  -29940  -29961       2   29916   29940  -29925  -29943       2
   29916   29934  -29922  -29937       2   29919   29922  -29916  -29925       2
   30093   30096  -30102  -30111       2   30084   30102  -30093  -30105       2
   30069   30072  -30084  -30093       2   30048   30084  -30069  -30087       2
   30033   30063  -30048  -30069       2   30024   30048  -30033  -30051       2
   30024   30042  -30030  -30045       2   30027   30030  -30024  -30033       2
   30201   30204  -30210  -30219       2   30192   30210  -30201  -30213       2
   30177   30180  -30192  -30201       2   30156   30192  -30177  -30195       2
   30141   30171  -30156  -30177       2   30132   30156  -30141  -30159       2
   30132   30150  -30138  -30153       2   30135   30138  -30132  -30141       2
   30309   30312  -30318  -30327       2   30300   30318  -30309  -30321       2
   30285   30288  -30300  -30309       2   30264   30300  -30285  -30303       2
   30249   30279  -30264  -30285       2   30240   30264  -30249  -30267       2
   30240   30258  -30246  -30261       2   30243   30246  -30240  -30249       2
   30417   30420  -30426  -30435       2   30408   30426  -30417  -30429       2
   30393   30396  -30408  -30417       2   30372   30408  -30393  -30411       2
   30357   30387  -30372  -30393       2   30348   30372  -30357  -30375       2
   30348   30366  -30354  -30369       2   30351   30354  -30348  -30357       2
   30525   30528  -30534  -30543       2   30516   30534  -30525  -30537       2
   30501   30504  -30516  -30525       2   30480   30516  -30501  -30519       2
   30465   30495  -30480  -30501       2   30456   30480  -30465  -30483       2
   30456   30474  -30462  -30477       2   30459   30462  -30456  -30465       2
   30633   30636  -30642  -30651       2   30624   30642  -30633  -30645       2
   30609   30612  -30624  -30633       2   30588   30624  -30609  -30627       2
   30573   30603  -30588  -30609       2   30564   30588  -30573  -30591       2
   30564   30582  -30570  -30585       2   30567   30570  -30564  -30573       2
   30741   30744  -30750  -30759       2   30732   30750  -30741  -30753       2
   30717   30720  -30732  -30741       2   30696   30732  -30717  -30735       2
   30681   30711  -30696  -30717       2   30672   30696  -30681  -30699       2
   30672   30690  -30678  -30693       2   30675   30678  -30672  -30681       2
   30849   30852  -30858  -30867       2   30840   30858  -30849  -30861       2
   30825   30828  -30840  -30849       2   30804   30840  -30825  -30843       2
   30789   30819  -30804  -30825       2   30780   30804  -30789  -30807       2
   30780   30798  -30786  -30801       2   30783   30786  -30780  -30789       2
   30957   30960  -30966  -30975       2   30948   30966  -30957  -30969       2
   30933   30936  -30948  -30957       2   30912   30948  -30933  -30951       2
   30897   30927  -30912  -30933       2   30888   30912  -30897  -30915       2
   30888   30906  -30894  -30909       2   30891   30894  -30888  -30897       2
   31065   31068  -31074  -31083       2   31056   31074  -31065  -31077       2
   31041   31044  -31056  -31065       2   31020   31056  -31041  -31059       2
   31005   31035  -31020  -31041       2   30996   31020  -31005  -31023       2
   30996   31014  -31002  -31017       2   30999   31002  -30996  -31005       2
   31173   31176  -31182  -31191       2   31164   31182  -31173  -31185       2
   31149   31152  -31164  -31173       2   31128   31164  -31149  -31167       2
   31113   31143  -31128  -31149       2   31104   31128  -31113  -31131       2
   31104   31122  -31110  -31125       2   31107   31110  -31104  -31113       2
   31281   31284  -31290  -31299       2   31272   31290  -31281  -31293       2
   31257   31260  -31272  -31281       2   31236   31272  -31257  -31275       2
   31221   31251  -31236  -31257       2   31212   31236  -31221  -31239       2
   31212   31230  -31218  -31233       2   31215   31218  -31212  -31221       2
   31389   31392  -31398  -31407       2   31380   31398  -31389  -31401       2
   31365   31368  -31380  -31389       2   31344   31380  -31365  -31383       2
   31329   31359  -31344  -31365       2   31320   31344  -31329  -31347       2
   31320   31338  -31326  -31341       2   31323   31326  -31320  -31329       2
   31497   31500  -31506  -31515       2   31488   31506  -31497  -31509       2
   31473   31476  -31488  -31497       2   31452   31488  -31473  -31491       2
   31437   31467  -31452  -31473       2   31428   31452  -31437  -31455       2
   31428   31446  -31434  -31449       2   31431   31434  -31428  -31437       2
   31605   31608  -31614  -31623       2   31596   31614  -31605  -31617       2
   31581   31584  -31596  -31605       2   31560   31596  -31581  -31599       2
   31545   31575  -31560  -31581       2   31536   31560  -31545  -31563       2
   31536   31554  -31542  -31557       2   31539   31542  -31536  -31545       2
   31713   31716  -31722  -31731       2   31704   31722  -31713  -31725       2
   31689   31692  -31704  -31713       2   31668   31704  -31689  -31707       2
   31653   31683  -31668  -31689       2   31644   31668  -31653  -31671       2
   31644   31662  -31650  -31665       2   31647   31650  -31644  -31653       2
   31821   31824  -31830  -31839       2   31812   31830  -31821  -31833       2
   31797   31800  -31812  -31821       2   31776   31812  -31797  -31815       2
   31761   31791  -31776  -31797       2   31752   31776  -31761  -31779       2
   31752   31770  -31758  -31773       2   31755   31758  -31752  -31761       2
   31929   31932  -31938  -31947       2   31920   31938  -31929  -31941       2
   31905   31908  -31920  -31929       2   31884   31920  -31905  -31923       2
   31869   31899  -31884  -31905       2   31860   31884  -31869  -31887       2
   31860   31878  -31866  -31881       2   31863   31866  -31860  -31869       2
   32037   32040  -32046  -32055       2   32028   32046  -32037  -32049       2
   32013   32016  -32028  -32037       2   31992   32028  -32013  -32031       2
   31977   32007  -31992  -32013       2   31968   31992  -31977  -31995       2
   31968   31986  -31974  -31989       2   31971   31974  -31968  -31977       2
   32145   32148  -32154  -32163       2   32136   32154  -32145  -32157       2
   32121   32124  -32136  -32145       2   32100   32136  -32121  -32139       2
   32085   32115  -32100  -32121       2   32076   32100  -32085  -32103       2
   32076   32094  -32082  -32097       2   32079   32082  -32076  -32085       2
   32253   32256  -32262  -32271       2   32244   32262  -32253  -32265       2
   32229   32232  -32244  -32253       2   32208   32244  -32229  -32247       2
   32193   32223  -32208  -32229       2   32184   32208  -32193  -32211       2
   32184   32202  -32190  -32205       2   32187   32190  -32184  -32193       2
   32361   32364  -32370  -32379       2   32352   32370  -32361  -32373       2
   32337   32340  -32352  -32361       2   32316   32352  -32337  -32355       2
   32301   32331  -32316  -32337       2   32292   32316  -32301  -32319       2
   32292   32310  -32298  -32313       2   32295   32298  -32292  -32301       2
   32469   32472  -32478  -32487       2   32460   32478  -32469  -32481       2
   32445   32448  -32460  -32469       2   32424   32460  -32445  -32463       2
   32409   32439  -32424  -32445       2   32400   32424  -32409  -32427       2
   32400   32418  -32406  -32421       2   32403   32406  -32400  -32409       2
   32577   32580  -32586  -32595       2   32568   32586  -32577  -32589       2
   32553   32556  -32568  -32577       2   32532   32568  -32553  -32571       2
   32517   32547  -32532  -32553       2   32508   32532  -32517  -32535       2
   32508   32526  -32514  -32529       2   32511   32514  -32508  -32517       2
   32685   32688  -32694  -32703       2   32676   32694  -32685  -32697       2
   32661   32664  -32676  -32685       2   32640   32676  -32661  -32679       2
   32625   32655  -32640  -32661       2   32616   32640  -32625  -32643       2
   32616   32634  -32622  -32637       2   32619   32622  -32616  -32625       2
   32793   32796  -32802  -32811       2   32784   32802  -32793  -32805       2
   32769   32772  -32784  -32793       2   32748   32784  -32769  -32787       2
   32733   32763  -32748  -32769       2   32724   32748  -32733  -32751       2
   32724   32742  -32730  -32745       2   32727   32730  -32724  -32733       2
   32901   32904  -32910  -32919       2   32892   32910  -32901  -32913       2
   32877   32880  -32892  -32901       2   32856   32892  -32877  -32895       2
   32841   32871  -32856  -32877       2   32832   32856  -32841  -32859       2
   32832   32850  -32838  -32853       2   32835   32838  -32832  -32841       2
   33009   33012  -33018  -33027       2   33000   33018  -33009  -33021       2
   32985   32988  -33000  -33009       2   32964   33000  -32985  -33003       2
   32949   32979  -32964  -32985       2   32940   32964  -32949  -32967       2
   32940   32958  -32946  -32961       2   32943   32946  -32940  -32949       2
   33117   33120  -33126  -33135       2   33108   33126  -33117  -33129       2
   33093   33096  -33108  -33117       2   33072   33108  -33093  -33111       2
   33057   33087  -33072  -33093       2   33048   33072  -33057  -33075       2
   33048   33066  -33054  -33069       2   33051   33054  -33048  -33057       2
   33225   33228  -33234  -33243       2   33216   33234  -33225  -33237       2
   33201   33204  -33216  -33225       2   33180   33216  -33201  -33219       2
   33165   33195  -33180  -33201       2   33156   33180  -33165  -33183       2
   33156   33174  -33162  -33177       2   33159   33162  -33156  -33165       2
   33333   33336  -33342  -33351       2   33324   33342  -33333  -33345       2
   33309   33312  -33324  -33333       2   33288   33324  -33309  -33327       2
   33273   33303  -33288  -33309       2   33264   33288  -33273  -33291       2
   33264   33282  -33270  -33285       2   33267   33270  -33264  -33273       2
   33441   33444  -33450  -33459       2   33432   33450  -33441  -33453       2
   33417   33420  -33432  -33441       2   33396   33432  -33417  -33435       2
   33381   33411  -33396  -33417       2   33372   33396  -33381  -33399       2
   33372   33390  -33378  -33393       2   33375   33378  -33372  -33381       2
   33549   33552  -33558  -33567       2   33540   33558  -33549  -33561       2
   33525   33528  -33540  -33549       2   33504   33540  -33525  -33543       2
   33489   33519  -33504  -33525       2   33480   33504  -33489  -33507       2
   33480   33498  -33486  -33501       2   33483   33486  -33480  -33489       2
   33657   33660  -33666  -33675       2   33648   33666  -33657  -33669       2
   33633   33636  -33648  -33657       2   33612   33648  -33633  -33651       2
   33597   33627  -33612  -33633       2   33588   33612  -33597  -33615       2
   33588   33606  -33594  -33609       2   33591   33594  -33588  -33597       2
   33765   33768  -33774  -33783       2   33756   33774  -33765  -33777       2
   33741   33744  -33756  -33765       2   33720   33756  -33741  -33759       2
   33705   33735  -33720  -33741       2   33696   33720  -33705  -33723       2
   33696   33714  -33702  -33717       2   33699   33702  -33696  -33705       2
   33873   33876  -33882  -33891       2   33864   33882  -33873  -33885       2
   33849   33852  -33864  -33873       2   33828   33864  -33849  -33867       2
   33813   33843  -33828  -33849       2   33804   33828  -33813  -33831       2
   33804   33822  -33810  -33825       2   33807   33810  -33804  -33813       2
   33981   33984  -33990  -33999       2   33972   33990  -33981  -33993       2
   33957   33960  -33972  -33981       2   33936   33972  -33957  -33975       2
   33921   33951  -33936  -33957       2   33912   33936  -33921  -33939       2
   33912   33930  -33918  -33933       2   33915   33918  -33912  -33921       2
   34089   34092  -34098  -34107       2   34080   34098  -34089  -34101       2
   34065   34068  -34080  -34089       2   34044   34080  -34065  -34083       2
   34029   34059  -34044  -34065       2   34020   34044  -34029  -34047       2
   34020   34038  -34026  -34041       2   34023   34026  -34020  -34029       2
   34197   34200  -34206  -34215       2   34188   34206  -34197  -34209       2
   34173   34176  -34188  -34197       2   34152   34188  -34173  -34191       2
   34137   34167  -34152  -34173       2   34128   34152  -34137  -34155       2
   34128   34146  -34134  -34149       2   34131   34134  -34128  -34137       2
   34305   34308  -34314  -34323       2   34296   34314  -34305  -34317       2
   34281   34284  -34296  -34305       2   34260   34296  -34281  -34299       2
   34245   34275  -34260  -34281       2   34236   34260  -34245  -34263       2
   34236   34254  -34242  -34257       2   34239   34242  -34236  -34245       2
   34413   34416  -34422  -34431       2   34404   34422  -34413  -34425       2
   34389   34392  -34404  -34413       2   34368   34404  -34389  -34407       2
   34353   34383  -34368  -34389       2   34344   34368  -34353  -34371       2
   34344   34362  -34350  -34365       2   34347   34350  -34344  -34353       2
   34521   34524  -34530  -34539       2   34512   34530  -34521  -34533       2
   34497   34500  -34512  -34521       2   34476   34512  -34497  -34515       2
   34461   34491  -34476  -34497       2   34452   34476  -34461  -34479       2
   34452   34470  -34458  -34473       2   34455   34458  -34452  -34461       2
   34629   34632  -34638  -34647       2   34620   34638  -34629  -34641       2
   34605   34608  -34620  -34629       2   34584   34620  -34605  -34623       2
   34569   34599  -34584  -34605       2   34560   34584  -34569  -34587       2
   34560   34578  -34566  -34581       2   34563   34566  -34560  -34569       2
   34737   34740  -34746  -34755       2   34728   34746  -34737  -34749       2
   34713   34716  -34728  -34737       2   34692   34728  -34713  -34731       2
   34677   34707  -34692  -34713       2   34668   34692  -34677  -34695       2
   34668   34686  -34674  -34689       2   34671   34674  -34668  -34677       2
   34845   34848  -34854  -34863       2   34836   34854  -34845  -34857       2
   34821   34824  -34836  -34845       2   34800   34836  -34821  -34839       2
   34785   34815  -34800  -34821       2   34776   34800  -34785  -34803       2
   34776   34794  -34782  -34797       2   34779   34782  -34776  -34785       2
   34953   34956  -34962  -34971       2   34944   34962  -34953  -34965       2
   34929   34932  -34944  -34953       2   34908   34944  -34929  -34947       2
   34893   34923  -34908  -34929       2   34884   34908  -34893  -34911       2
   34884   34902  -34890  -34905       2   34887   34890  -34884  -34893       2
   35061   35064  -35070  -35079       2   35052   35070  -35061  -35073       2
   35037   35040  -35052  -35061       2   35016   35052  -35037  -35055       2
   35001   35031  -35016  -35037       2   34992   35016  -35001  -35019       2
   34992   35010  -34998  -35013       2   34995   34998  -34992  -35001       2
   35169   35172  -35178  -35187       2   35160   35178  -35169  -35181       2
   35145   35148  -35160  -35169       2   35124   35160  -35145  -35163       2
   35109   35139  -35124  -35145       2   35100   35124  -35109  -35127       2
   35100   35118  -35106  -35121       2   35103   35106  -35100  -35109       2
   35277   35280  -35286  -35295       2   35268   35286  -35277  -35289       2
   35253   35256  -35268  -35277       2   35232   35268  -35253  -35271       2
   35217   35247  -35232  -35253       2   35208   35232  -35217  -35235       2
   35208   35226  -35214  -35229       2   35211   35214  -35208  -35217       2
   35385   35388  -35394  -35403       2   35376   35394  -35385  -35397       2
   35361   35364  -35376  -35385       2   35340   35376  -35361  -35379       2
   35325   35355  -35340  -35361       2   35316   35340  -35325  -35343       2
   35316   35334  -35322  -35337       2   35319   35322  -35316  -35325       2
   35493   35496  -35502  -35511       2   35484   35502  -35493  -35505       2
   35469   35472  -35484  -35493       2   35448   35484  -35469  -35487       2
   35433   35463  -35448  -35469       2   35424   35448  -35433  -35451       2
   35424   35442  -35430  -35445       2   35427   35430  -35424  -35433       2
   35601   35604  -35610  -35619       2   35592   35610  -35601  -35613       2
   35577   35580  -35592  -35601       2   35556   35592  -35577  -35595       2
   35541   35571  -35556  -35577       2   35532   35556  -35541  -35559       2
   35532   35550  -35538  -35553       2   35535   35538  -35532  -35541       2
   35709   35712  -35718  -35727       2   35700   35718  -35709  -35721       2
   35685   35688  -35700  -35709       2   35664   35700  -35685  -35703       2
   35649   35679  -35664  -35685       2   35640   35664  -35649  -35667       2
   35640   35658  -35646  -35661       2   35643   35646  -35640  -35649       2
   35817   35820  -35826  -35835       2   35808   35826  -35817  -35829       2
   35793   35796  -35808  -35817       2   35772   35808  -35793  -35811       2
   35757   35787  -35772  -35793       2   35748   35772  -35757  -35775       2
   35748   35766  -35754  -35769       2   35751   35754  -35748  -35757       2
   35925   35928  -35934  -35943       2   35916   35934  -35925  -35937       2
   35901   35904  -35916  -35925       2   35880   35916  -35901  -35919       2
   35865   35895  -35880  -35901       2   35856   35880  -35865  -35883       2
   35856   35874  -35862  -35877       2   35859   35862  -35856  -35865       2
   36033   36036  -36042  -36051       2   36024   36042  -36033  -36045       2
   36009   36012  -36024  -36033       2   35988   36024  -36009  -36027       2
   35973   36003  -35988  -36009       2   35964   35988  -35973  -35991       2
   35964   35982  -35970  -35985       2   35967   35970  -35964  -35973       2
   36141   36144  -36150  -36159       2   36132   36150  -36141  -36153       2
   36117   36120  -36132  -36141       2   36096   36132  -36117  -36135       2
   36081   36111  -36096  -36117       2   36072   36096  -36081  -36099       2
   36072   36090  -36078  -36093       2   36075   36078  -36072  -36081       2
   36249   36252  -36258  -36267       2   36240   36258  -36249  -36261       2
   36225   36228  -36240  -36249       2   36204   36240  -36225  -36243       2
   36189   36219  -36204  -36225       2   36180   36204  -36189  -36207       2
   36180   36198  -36186  -36201       2   36183   36186  -36180  -36189       2
   36357   36360  -36366  -36375       2   36348   36366  -36357  -36369       2
   36333   36336  -36348  -36357       2   36312   36348  -36333  -36351       2
   36297   36327  -36312  -36333       2   36288   36312  -36297  -36315       2
   36288   36306  -36294  -36309       2   36291   36294  -36288  -36297       2
   36465   36468  -36474  -36483       2   36456   36474  -36465  -36477       2
   36441   36444  -36456  -36465       2   36420   36456  -36441  -36459       2
   36405   36435  -36420  -36441       2   36396   36420  -36405  -36423       2
   36396   36414  -36402  -36417       2   36399   36402  -36396  -36405       2
   36573   36576  -36582  -36591       2   36564   36582  -36573  -36585       2
   36549   36552  -36564  -36573       2   36528   36564  -36549  -36567       2
   36513   36543  -36528  -36549       2   36504   36528  -36513  -36531       2
   36504   36522  -36510  -36525       2   36507   36510  -36504  -36513       2
   36681   36684  -36690  -36699       2   36672   36690  -36681  -36693       2
   36657   36660  -36672  -36681       2   36636   36672  -36657  -36675       2
   36621   36651  -36636  -36657       2   36612   36636  -36621  -36639       2
   36612   36630  -36618  -36633       2   36615   36618  -36612  -36621       2
   36789   36792  -36798  -36807       2   36780   36798  -36789  -36801       2
   36765   36768  -36780  -36789       2   36744   36780  -36765  -36783       2
   36729   36759  -36744  -36765       2   36720   36744  -36729  -36747       2
   36720   36738  -36726  -36741       2   36723   36726  -36720  -36729       2
   36897   36900  -36906  -36915       2   36888   36906  -36897  -36909       2
   36873   36876  -36888  -36897       2   36852   36888  -36873  -36891       2
   36837   36867  -36852  -36873       2   36828   36852  -36837  -36855       2
   36828   36846  -36834  -36849       2   36831   36834  -36828  -36837       2
   37005   37008  -37014  -37023       2   36996   37014  -37005  -37017       2
   36981   36984  -36996  -37005       2   36960   36996  -36981  -36999       2
   36945   36975  -36960  -36981       2   36936   36960  -36945  -36963       2
   36936   36954  -36942  -36957       2   36939   36942  -36936  -36945       2
   37113   37116  -37122  -37131       2   37104   37122  -37113  -37125       2
   37089   37092  -37104  -37113       2   37068   37104  -37089  -37107       2
   37053   37083  -37068  -37089       2   37044   37068  -37053  -37071       2
   37044   37062  -37050  -37065       2   37047   37050  -37044  -37053       2
   37221   37224  -37230  -37239       2   37212   37230  -37221  -37233       2
   37197   37200  -37212  -37221       2   37176   37212  -37197  -37215       2
   37161   37191  -37176  -37197       2   37152   37176  -37161  -37179       2
   37152   37170  -37158  -37173       2   37155   37158  -37152  -37161       2
   37329   37332  -37338  -37347       2   37320   37338  -37329  -37341       2
   37305   37308  -37320  -37329       2   37284   37320  -37305  -37323       2
   37269   37299  -37284  -37305       2   37260   37284  -37269  -37287       2
   37260   37278  -37266  -37281       2   37263   37266  -37260  -37269       2
   37437   37440  -37446  -37455       2   37428   37446  -37437  -37449       2
   37413   37416  -37428  -37437       2   37392   37428  -37413  -37431       2
   37377   37407  -37392  -37413       2   37368   37392  -37377  -37395       2
   37368   37386  -37374  -37389       2   37371   37374  -37368  -37377       2
   37545   37548  -37554  -37563       2   37536   37554  -37545  -37557       2
   37521   37524  -37536  -37545       2   37500   37536  -37521  -37539       2
   37485   37515  -37500  -37521       2   37476   37500  -37485  -37503       2
   37476   37494  -37482  -37497       2   37479   37482  -37476  -37485       2
   37653   37656  -37662  -37671       2   37644   37662  -37653  -37665       2
   37629   37632  -37644  -37653       2   37608   37644  -37629  -37647       2
   37593   37623  -37608  -37629       2   37584   37608  -37593  -37611       2
   37584   37602  -37590  -37605       2   37587   37590  -37584  -37593       2
   37761   37764  -37770  -37779       2   37752   37770  -37761  -37773       2
   37737   37740  -37752  -37761       2   37716   37752  -37737  -37755       2
   37701   37731  -37716  -37737       2   37692   37716  -37701  -37719       2
   37692   37710  -37698  -37713       2   37695   37698  -37692  -37701       2
   37869   37872  -37878  -37887       2   37860   37878  -37869  -37881       2
   37845   37848  -37860  -37869       2   37824   37860  -37845  -37863       2
   37809   37839  -37824  -37845       2   37800   37824  -37809  -37827       2
   37800   37818  -37806  -37821       2   37803   37806  -37800  -37809       2
   37977   37980  -37986  -37995       2   37968   37986  -37977  -37989       2
   37953   37956  -37968  -37977       2   37932   37968  -37953  -37971       2
   37917   37947  -37932  -37953       2   37908   37932  -37917  -37935       2
   37908   37926  -37914  -37929       2   37911   37914  -37908  -37917       2
   38085   38088  -38094  -38103       2   38076   38094  -38085  -38097       2
   38061   38064  -38076  -38085       2   38040   38076  -38061  -38079       2
   38025   38055  -38040  -38061       2   38016   38040  -38025  -38043       2
   38016   38034  -38022  -38037       2   38019   38022  -38016  -38025       2
   38193   38196  -38202  -38211       2   38184   38202  -38193  -38205       2
   38169   38172  -38184  -38193       2   38148   38184  -38169  -38187       2
   38133   38163  -38148  -38169       2   38124   38148  -38133  -38151       2
   38124   38142  -38130  -38145       2   38127   38130  -38124  -38133       2
   38301   38304  -38310  -38319       2   38292   38310  -38301  -38313       2
   38277   38280  -38292  -38301       2   38256   38292  -38277  -38295       2
   38241   38271  -38256  -38277       2   38232   38256  -38241  -38259       2
   38232   38250  -38238  -38253       2   38235   38238  -38232  -38241       2
   38409   38412  -38418  -38427       2   38400   38418  -38409  -38421       2
   38385   38388  -38400  -38409       2   38364   38400  -38385  -38403       2
   38349   38379  -38364  -38385       2   38340   38364  -38349  -38367       2
   38340   38358  -38346  -38361       2   38343   38346  -38340  -38349       2
   38517   38520  -38526  -38535       2   38508   38526  -38517  -38529       2
   38493   38496  -38508  -38517       2   38472   38508  -38493  -38511       2
   38457   38487  -38472  -38493       2   38448   38472  -38457  -38475       2
   38448   38466  -38454  -38469       2   38451   38454  -38448  -38457       2
   38625   38628  -38634  -38643       2   38616   38634  -38625  -38637       2
   38601   38604  -38616  -38625       2   38580   38616  -38601  -38619       2
   38565   38595  -38580  -38601       2   38556   38580  -38565  -38583       2
   38556   38574  -38562  -38577       2   38559   38562  -38556  -38565       2
   38733   38736  -38742  -38751       2   38724   38742  -38733  -38745       2
   38709   38712  -38724  -38733       2   38688   38724  -38709  -38727       2
   38673   38703  -38688  -38709       2   38664   38688  -38673  -38691       2
   38664   38682  -38670  -38685       2   38667   38670  -38664  -38673       2
   38841   38844  -38850  -38859       2   38832   38850  -38841  -38853       2
   38817   38820  -38832  -38841       2   38796   38832  -38817  -38835       2
   38781   38811  -38796  -38817       2   38772   38796  -38781  -38799       2
   38772   38790  -38778  -38793       2   38775   38778  -38772  -38781       2
   38949   38952  -38958  -38967       2   38940   38958  -38949  -38961       2
   38925   38928  -38940  -38949       2   38904   38940  -38925  -38943       2
   38889   38919  -38904  -38925       2   38880   38904  -38889  -38907       2
   38880   38898  -38886  -38901       2   38883   38886  -38880  -38889       2
   39057   39060  -39066  -39075       2   39048   39066  -39057  -39069       2
   39033   39036  -39048  -39057       2   39012   39048  -39033  -39051       2
   38997   39027  -39012  -39033       2   38988   39012  -38997  -39015       2
   38988   39006  -38994  -39009       2   38991   38994  -38988  -38997       2
   39165   39168  -39174  -39183       2   39156   39174  -39165  -39177       2
   39141   39144  -39156  -39165       2   39120   39156  -39141  -39159       2
   39105   39135  -39120  -39141       2   39096   39120  -39105  -39123       2
   39096   39114  -39102  -39117       2   39099   39102  -39096  -39105       2
   39273   39276  -39282  -39291       2   39264   39282  -39273  -39285       2
   39249   39252  -39264  -39273       2   39228   39264  -39249  -39267       2
   39213   39243  -39228  -39249       2   39204   39228  -39213  -39231       2
   39204   39222  -39210  -39225       2   39207   39210  -39204  -39213       2
   39381   39384  -39390  -39399       2   39372   39390  -39381  -39393       2
   39357   39360  -39372  -39381       2   39336   39372  -39357  -39375       2
   39321   39351  -39336  -39357       2   39312   39336  -39321  -39339       2
   39312   39330  -39318  -39333       2   39315   39318  -39312  -39321       2
   39489   39492  -39498  -39507       2   39480   39498  -39489  -39501       2
   39465   39468  -39480  -39489       2   39444   39480  -39465  -39483       2
   39429   39459  -39444  -39465       2   39420   39444  -39429  -39447       2
   39420   39438  -39426  -39441       2   39423   39426  -39420  -39429       2
   39597   39600  -39606  -39615       2   39588   39606  -39597  -39609       2
   39573   39576  -39588  -39597       2   39552   39588  -39573  -39591       2
   39537   39567  -39552  -39573       2   39528   39552  -39537  -39555       2
   39528   39546  -39534  -39549       2   39531   39534  -39528  -39537       2
   39705   39708  -39714  -39723       2   39696   39714  -39705  -39717       2
   39681   39684  -39696  -39705       2   39660   39696  -39681  -39699       2
   39645   39675  -39660  -39681       2   39636   39660  -39645  -39663       2
   39636   39654  -39642  -39657       2   39639   39642  -39636  -39645       2
   39813   39816  -39822  -39831       2   39804   39822  -39813  -39825       2
   39789   39792  -39804  -39813       2   39768   39804  -39789  -39807       2
   39753   39783  -39768  -39789       2   39744   39768  -39753  -39771       2
   39744   39762  -39750  -39765       2   39747   39750  -39744  -39753       2
   39921   39924  -39930  -39939       2   39912   39930  -39921  -39933       2
   39897   39900  -39912  -39921       2   39876   39912  -39897  -39915       2
   39861   39891  -39876  -39897       2   39852   39876  -39861  -39879       2
   39852   39870  -39858  -39873       2   39855   39858  -39852  -39861       2
   40029   40032  -40038  -40047       2   40020   40038  -40029  -40041       2
   40005   40008  -40020  -40029       2   39984   40020  -40005  -40023       2
   39969   39999  -39984  -40005       2   39960   39984  -39969  -39987       2
   39960   39978  -39966  -39981       2   39963   39966  -39960  -39969       2
   40137   40140  -40146  -40155       2   40128   40146  -40137  -40149       2
   40113   40116  -40128  -40137       2   40092   40128  -40113  -40131       2
   40077   40107  -40092  -40113       2   40068   40092  -40077  -40095       2
   40068   40086  -40074  -40089       2   40071   40074  -40068  -40077       2
   40245   40248  -40254  -40263       2   40236   40254  -40245  -40257       2
   40221   40224  -40236  -40245       2   40200   40236  -40221  -40239       2
   40185   40215  -40200  -40221       2   40176   40200  -40185  -40203       2
   40176   40194  -40182  -40197       2   40179   40182  -40176  -40185       2
   40353   40356  -40362  -40371       2   40344   40362  -40353  -40365       2
   40329   40332  -40344  -40353       2   40308   40344  -40329  -40347       2
   40293   40323  -40308  -40329       2   40284   40308  -40293  -40311       2
   40284   40302  -40290  -40305       2   40287   40290  -40284  -40293       2
   40461   40464  -40470  -40479       2   40452   40470  -40461  -40473       2
   40437   40440  -40452  -40461       2   40416   40452  -40437  -40455       2
   40401   40431  -40416  -40437       2   40392   40416  -40401  -40419       2
   40392   40410  -40398  -40413       2   40395   40398  -40392  -40401       2
   40569   40572  -40578  -40587       2   40560   40578  -40569  -40581       2
   40545   40548  -40560  -40569       2   40524   40560  -40545  -40563       2
   40509   40539  -40524  -40545       2   40500   40524  -40509  -40527       2
   40500   40518  -40506  -40521       2   40503   40506  -40500  -40509       2
   40677   40680  -40686  -40695       2   40668   40686  -40677  -40689       2
   40653   40656  -40668  -40677       2   40632   40668  -40653  -40671       2
   40617   40647  -40632  -40653       2   40608   40632  -40617  -40635       2
   40608   40626  -40614  -40629       2   40611   40614  -40608  -40617       2
   40785   40788  -40794  -40803       2   40776   40794  -40785  -40797       2
   40761   40764  -40776  -40785       2   40740   40776  -40761  -40779       2
   40725   40755  -40740  -40761       2   40716   40740  -40725  -40743       2
   40716   40734  -40722  -40737       2   40719   40722  -40716  -40725       2
   40893   40896  -40902  -40911       2   40884   40902  -40893  -40905       2
   40869   40872  -40884  -40893       2   40848   40884  -40869  -40887       2
   40833   40863  -40848  -40869       2   40824   40848  -40833  -40851       2
   40824   40842  -40830  -40845       2   40827   40830  -40824  -40833       2
   41001   41004  -41010  -41019       2   40992   41010  -41001  -41013       2
   40977   40980  -40992  -41001       2   40956   40992  -40977  -40995       2
   40941   40971  -40956  -40977       2   40932   40956  -40941  -40959       2
   40932   40950  -40938  -40953       2   40935   40938  -40932  -40941       2
   41109   41112  -41118  -41127       2   41100   41118  -41109  -41121       2
   41085   41088  -41100  -41109       2   41064   41100  -41085  -41103       2
   41049   41079  -41064  -41085       2   41040   41064  -41049  -41067       2
   41040   41058  -41046  -41061       2   41043   41046  -41040  -41049       2
   41217   41220  -41226  -41235       2   41208   41226  -41217  -41229       2
   41193   41196  -41208  -41217       2   41172   41208  -41193  -41211       2
   41157   41187  -41172  -41193       2   41148   41172  -41157  -41175       2
   41148   41166  -41154  -41169       2   41151   41154  -41148  -41157       2
   41325   41328  -41334  -41343       2   41316   41334  -41325  -41337       2
   41301   41304  -41316  -41325       2   41280   41316  -41301  -41319       2
   41265   41295  -41280  -41301       2   41256   41280  -41265  -41283       2
   41256   41274  -41262  -41277       2   41259   41262  -41256  -41265       2
   41433   41436  -41442  -41451       2   41424   41442  -41433  -41445       2
   41409   41412  -41424  -41433       2   41388   41424  -41409  -41427       2
   41373   41403  -41388  -41409       2   41364   41388  -41373  -41391       2
   41364   41382  -41370  -41385       2   41367   41370  -41364  -41373       2
   41541   41544  -41550  -41559       2   41532   41550  -41541  -41553       2
   41517   41520  -41532  -41541       2   41496   41532  -41517  -41535       2
   41481   41511  -41496  -41517       2   41472   41496  -41481  -41499       2
   41472   41490  -41478  -41493       2   41475   41478  -41472  -41481       2
   41649   41652  -41658  -41667       2   41640   41658  -41649  -41661       2
   41625   41628  -41640  -41649       2   41604   41640  -41625  -41643       2
   41589   41619  -41604  -41625       2   41580   41604  -41589  -41607       2
   41580   41598  -41586  -41601       2   41583   41586  -41580  -41589       2
   41757   41760  -41766  -41775       2   41748   41766  -41757  -41769       2
   41733   41736  -41748  -41757       2   41712   41748  -41733  -41751       2
   41697   41727  -41712  -41733       2   41688   41712  -41697  -41715       2
   41688   41706  -41694  -41709       2   41691   41694  -41688  -41697       2
   41865   41868  -41874  -41883       2   41856   41874  -41865  -41877       2
   41841   41844  -41856  -41865       2   41820   41856  -41841  -41859       2
   41805   41835  -41820  -41841       2   41796   41820  -41805  -41823       2
   41796   41814  -41802  -41817       2   41799   41802  -41796  -41805       2
   41973   41976  -41982  -41991       2   41964   41982  -41973  -41985       2
   41949   41952  -41964  -41973       2   41928   41964  -41949  -41967       2
   41913   41943  -41928  -41949       2   41904   41928  -41913  -41931       2
   41904   41922  -41910  -41925       2   41907   41910  -41904  -41913       2
   42081   42084  -42090  -42099       2   42072   42090  -42081  -42093       2
   42057   42060  -42072  -42081       2   42036   42072  -42057  -42075       2
   42021   42051  -42036  -42057       2   42012   42036  -42021  -42039       2
   42012   42030  -42018  -42033       2   42015   42018  -42012  -42021       2
   42189   42192  -42198  -42207       2   42180   42198  -42189  -42201       2
   42165   42168  -42180  -42189       2   42144   42180  -42165  -42183       2
   42129   42159  -42144  -42165       2   42120   42144  -42129  -42147       2
   42120   42138  -42126  -42141       2   42123   42126  -42120  -42129       2
   42297   42300  -42306  -42315       2   42288   42306  -42297  -42309       2
   42273   42276  -42288  -42297       2   42252   42288  -42273  -42291       2
   42237   42267  -42252  -42273       2   42228   42252  -42237  -42255       2
   42228   42246  -42234  -42249       2   42231   42234  -42228  -42237       2
   42405   42408  -42414  -42423       2   42396   42414  -42405  -42417       2
   42381   42384  -42396  -42405       2   42360   42396  -42381  -42399       2
   42345   42375  -42360  -42381       2   42336   42360  -42345  -42363       2
   42336   42354  -42342  -42357       2   42339   42342  -42336  -42345       2
   42513   42516  -42522  -42531       2   42504   42522  -42513  -42525       2
   42489   42492  -42504  -42513       2   42468   42504  -42489  -42507       2
   42453   42483  -42468  -42489       2   42444   42468  -42453  -42471       2
   42444   42462  -42450  -42465       2   42447   42450  -42444  -42453       2
   42621   42624  -42630  -42639       2   42612   42630  -42621  -42633       2
   42597   42600  -42612  -42621       2   42576   42612  -42597  -42615       2
   42561   42591  -42576  -42597       2   42552   42576  -42561  -42579       2
   42552   42570  -42558  -42573       2   42555   42558  -42552  -42561       2
   42729   42732  -42738  -42747       2   42720   42738  -42729  -42741       2
   42705   42708  -42720  -42729       2   42684   42720  -42705  -42723       2
   42669   42699  -42684  -42705       2   42660   42684  -42669  -42687       2
   42660   42678  -42666  -42681       2   42663   42666  -42660  -42669       2
   42837   42840  -42846  -42855       2   42828   42846  -42837  -42849       2
   42813   42816  -42828  -42837       2   42792   42828  -42813  -42831       2
   42777   42807  -42792  -42813       2   42768   42792  -42777  -42795       2
   42768   42786  -42774  -42789       2   42771   42774  -42768  -42777       2
   42945   42948  -42954  -42963       2   42936   42954  -42945  -42957       2
   42921   42924  -42936  -42945       2   42900   42936  -42921  -42939       2
   42885   42915  -42900  -42921       2   42876   42900  -42885  -42903       2
   42876   42894  -42882  -42897       2   42879   42882  -42876  -42885       2
   43053   43056  -43062  -43071       2   43044   43062  -43053  -43065       2
   43029   43032  -43044  -43053       2   43008   43044  -43029  -43047       2
   42993   43023  -43008  -43029       2   42984   43008  -42993  -43011       2
   42984   43002  -42990  -43005       2   42987   42990  -42984  -42993       2
   43161   43164  -43170  -43179       2   43152   43170  -43161  -43173       2
   43137   43140  -43152  -43161       2   43116   43152  -43137  -43155       2
   43101   43131  -43116  -43137       2   43092   43116  -43101  -43119       2
   43092   43110  -43098  -43113       2   43095   43098  -43092  -43101       2
   43269   43272  -43278  -43287       2   43260   43278  -43269  -43281       2
   43245   43248  -43260  -43269       2   43224   43260  -43245  -43263       2
   43209   43239  -43224  -43245       2   43200   43224  -43209  -43227       2
   43200   43218  -43206  -43221       2   43203   43206  -43200  -43209       2
   43377   43380  -43386  -43395       2   43368   43386  -43377  -43389       2
   43353   43356  -43368  -43377       2   43332   43368  -43353  -43371       2
   43317   43347  -43332  -43353       2   43308   43332  -43317  -43335       2
   43308   43326  -43314  -43329       2   43311   43314  -43308  -43317       2
   43485   43488  -43494  -43503       2   43476   43494  -43485  -43497       2
   43461   43464  -43476  -43485       2   43440   43476  -43461  -43479       2
   43425   43455  -43440  -43461       2   43416   43440  -43425  -43443       2
   43416   43434  -43422  -43437       2   43419   43422  -43416  -43425       2
   43593   43596  -43602  -43611       2   43584   43602  -43593  -43605       2
   43569   43572  -43584  -43593       2   43548   43584  -43569  -43587       2
   43533   43563  -43548  -43569       2   43524   43548  -43533  -43551       2
   43524   43542  -43530  -43545       2   43527   43530  -43524  -43533       2
   43701   43704  -43710  -43719       2   43692   43710  -43701  -43713       2
   43677   43680  -43692  -43701       2   43656   43692  -43677  -43695       2
   43641   43671  -43656  -43677       2   43632   43656  -43641  -43659       2
   43632   43650  -43638  -43653       2   43635   43638  -43632  -43641       2
   43809   43812  -43818  -43827       2   43800   43818  -43809  -43821       2
   43785   43788  -43800  -43809       2   43764   43800  -43785  -43803       2
   43749   43779  -43764  -43785       2   43740   43764  -43749  -43767       2
   43740   43758  -43746  -43761       2   43743   43746  -43740  -43749       2
   43917   43920  -43926  -43935       2   43908   43926  -43917  -43929       2
   43893   43896  -43908  -43917       2   43872   43908  -43893  -43911       2
   43857   43887  -43872  -43893       2   43848   43872  -43857  -43875       2
   43848   43866  -43854  -43869       2   43851   43854  -43848  -43857       2
   44025   44028  -44034  -44043       2   44016   44034  -44025  -44037       2
   44001   44004  -44016  -44025       2   43980   44016  -44001  -44019       2
   43965   43995  -43980  -44001       2   43956   43980  -43965  -43983       2
   43956   43974  -43962  -43977       2   43959   43962  -43956  -43965       2
   44133   44136  -44142  -44151       2   44124   44142  -44133  -44145       2
   44109   44112  -44124  -44133       2   44088   44124  -44109  -44127       2
   44073   44103  -44088  -44109       2   44064   44088  -44073  -44091       2
   44064   44082  -44070  -44085       2   44067   44070  -44064  -44073       2
   44241   44244  -44250  -44259       2   44232   44250  -44241  -44253       2
   44217   44220  -44232  -44241       2   44196   44232  -44217  -44235       2
   44181   44211  -44196  -44217       2   44172   44196  -44181  -44199       2
   44172   44190  -44178  -44193       2   44175   44178  -44172  -44181       2
   44349   44352  -44358  -44367       2   44340   44358  -44349  -44361       2
   44325   44328  -44340  -44349       2   44304   44340  -44325  -44343       2
   44289   44319  -44304  -44325       2   44280   44304  -44289  -44307       2
   44280   44298  -44286  -44301       2   44283   44286  -44280  -44289       2
   44457   44460  -44466  -44475       2   44448   44466  -44457  -44469       2
   44433   44436  -44448  -44457       2   44412   44448  -44433  -44451       2
   44397   44427  -44412  -44433       2   44388   44412  -44397  -44415       2
   44388   44406  -44394  -44409       2   44391   44394  -44388  -44397       2
   44565   44568  -44574  -44583       2   44556   44574  -44565  -44577       2
   44541   44544  -44556  -44565       2   44520   44556  -44541  -44559       2
   44505   44535  -44520  -44541       2   44496   44520  -44505  -44523       2
   44496   44514  -44502  -44517       2   44499   44502  -44496  -44505       2
   44673   44676  -44682  -44691       2   44664   44682  -44673  -44685       2
   44649   44652  -44664  -44673       2   44628   44664  -44649  -44667       2
   44613   44643  -44628  -44649       2   44604   44628  -44613  -44631       2
   44604   44622  -44610  -44625       2   44607   44610  -44604  -44613       2
   44781   44784  -44790  -44799       2   44772   44790  -44781  -44793       2
   44757   44760  -44772  -44781       2   44736   44772  -44757  -44775       2
   44721   44751  -44736  -44757       2   44712   44736  -44721  -44739       2
   44712   44730  -44718  -44733       2   44715   44718  -44712  -44721       2
   44889   44892  -44898  -44907       2   44880   44898  -44889  -44901       2
   44865   44868  -44880  -44889       2   44844   44880  -44865  -44883       2
   44829   44859  -44844  -44865       2   44820   44844  -44829  -44847       2
   44820   44838  -44826  -44841       2   44823   44826  -44820  -44829       2
   44997   45000  -45006  -45015       2   44988   45006  -44997  -45009       2
   44973   44976  -44988  -44997       2   44952   44988  -44973  -44991       2
   44937   44967  -44952  -44973       2   44928   44952  -44937  -44955       2
   44928   44946  -44934  -44949       2   44931   44934  -44928  -44937       2
   45105   45108  -45114  -45123       2   45096   45114  -45105  -45117       2
   45081   45084  -45096  -45105       2   45060   45096  -45081  -45099       2
   45045   45075  -45060  -45081       2   45036   45060  -45045  -45063       2
   45036   45054  -45042  -45057       2   45039   45042  -45036  -45045       2
   45213   45216  -45222  -45231       2   45204   45222  -45213  -45225       2
   45189   45192  -45204  -45213       2   45168   45204  -45189  -45207       2
   45153   45183  -45168  -45189       2   45144   45168  -45153  -45171       2
   45144   45162  -45150  -45165       2   45147   45150  -45144  -45153       2
   45321   45324  -45330  -45339       2   45312   45330  -45321  -45333       2
   45297   45300  -45312  -45321       2   45276   45312  -45297  -45315       2
   45261   45291  -45276  -45297       2   45252   45276  -45261  -45279       2
   45252   45270  -45258  -45273       2   45255   45258  -45252  -45261       2
   45429   45432  -45438  -45447       2   45420   45438  -45429  -45441       2
   45405   45408  -45420  -45429       2   45384   45420  -45405  -45423       2
   45369   45399  -45384  -45405       2   45360   45384  -45369  -45387       2
   45360   45378  -45366  -45381       2   45363   45366  -45360  -45369       2
   45537   45540  -45546  -45555       2   45528   45546  -45537  -45549       2
   45513   45516  -45528  -45537       2   45492   45528  -45513  -45531       2
   45477   45507  -45492  -45513       2   45468   45492  -45477  -45495       2
   45468   45486  -45474  -45489       2   45471   45474  -45468  -45477       2
   45645   45648  -45654  -45663       2   45636   45654  -45645  -45657       2
   45621   45624  -45636  -45645       2   45600   45636  -45621  -45639       2
   45585   45615  -45600  -45621       2   45576   45600  -45585  -45603       2
   45576   45594  -45582  -45597       2   45579   45582  -45576  -45585       2
   45753   45756  -45762  -45771       2   45744   45762  -45753  -45765       2
   45729   45732  -45744  -45753       2   45708   45744  -45729  -45747       2
   45693   45723  -45708  -45729       2   45684   45708  -45693  -45711       2
   45684   45702  -45690  -45705       2   45687   45690  -45684  -45693       2
   45861   45864  -45870  -45879       2   45852   45870  -45861  -45873       2
   45837   45840  -45852  -45861       2   45816   45852  -45837  -45855       2
   45801   45831  -45816  -45837       2   45792   45816  -45801  -45819       2
   45792   45810  -45798  -45813       2   45795   45798  -45792  -45801       2
   45969   45972  -45978  -45987       2   45960   45978  -45969  -45981       2
   45945   45948  -45960  -45969       2   45924   45960  -45945  -45963       2
   45909   45939  -45924  -45945       2   45900   45924  -45909  -45927       2
   45900   45918  -45906  -45921       2   45903   45906  -45900  -45909       2
   46077   46080  -46086  -46095       2   46068   46086  -46077  -46089       2
   46053   46056  -46068  -46077       2   46032   46068  -46053  -46071       2
   46017   46047  -46032  -46053       2   46008   46032  -46017  -46035       2
   46008   46026  -46014  -46029       2   46011   46014  -46008  -46017       2
   46185   46188  -46194  -46203       2   46176   46194  -46185  -46197       2
   46161   46164  -46176  -46185       2   46140   46176  -46161  -46179       2
   46125   46155  -46140  -46161       2   46116   46140  -46125  -46143       2
   46116   46134  -46122  -46137       2   46119   46122  -46116  -46125       2
   46293   46296  -46302  -46311       2   46284   46302  -46293  -46305       2
   46269   46272  -46284  -46293       2   46248   46284  -46269  -46287       2
   46233   46263  -46248  -46269       2   46224   46248  -46233  -46251       2
   46224   46242  -46230  -46245       2   46227   46230  -46224  -46233       2
   46401   46404  -46410  -46419       2   46392   46410  -46401  -46413       2
   46377   46380  -46392  -46401       2   46356   46392  -46377  -46395       2
   46341   46371  -46356  -46377       2   46332   46356  -46341  -46359       2
   46332   46350  -46338  -46353       2   46335   46338  -46332  -46341       2
   46509   46512  -46518  -46527       2   46500   46518  -46509  -46521       2
   46485   46488  -46500  -46509       2   46464   46500  -46485  -46503       2
   46449   46479  -46464  -46485       2   46440   46464  -46449  -46467       2
   46440   46458  -46446  -46461       2   46443   46446  -46440  -46449       2
   46617   46620  -46626  -46635       2   46608   46626  -46617  -46629       2
   46593   46596  -46608  -46617       2   46572   46608  -46593  -46611       2
   46557   46587  -46572  -46593       2   46548   46572  -46557  -46575       2
   46548   46566  -46554  -46569       2   46551   46554  -46548  -46557       2
   46725   46728  -46734  -46743       2   46716   46734  -46725  -46737       2
   46701   46704  -46716  -46725       2   46680   46716  -46701  -46719       2
   46665   46695  -46680  -46701       2   46656   46680  -46665  -46683       2
   46656   46674  -46662  -46677       2   46659   46662  -46656  -46665       2
   46833   46836  -46842  -46851       2   46824   46842  -46833  -46845       2
   46809   46812  -46824  -46833       2   46788   46824  -46809  -46827       2
   46773   46803  -46788  -46809       2   46764   46788  -46773  -46791       2
   46764   46782  -46770  -46785       2   46767   46770  -46764  -46773       2
   46941   46944  -46950  -46959       2   46932   46950  -46941  -46953       2
   46917   46920  -46932  -46941       2   46896   46932  -46917  -46935       2
   46881   46911  -46896  -46917       2   46872   46896  -46881  -46899       2
   46872   46890  -46878  -46893       2   46875   46878  -46872  -46881       2
   47049   47052  -47058  -47067       2   47040   47058  -47049  -47061       2
   47025   47028  -47040  -47049       2   47004   47040  -47025  -47043       2
   46989   47019  -47004  -47025       2   46980   47004  -46989  -47007       2
   46980   46998  -46986  -47001       2   46983   46986  -46980  -46989       2
   47157   47160  -47166  -47175       2   47148   47166  -47157  -47169       2
   47133   47136  -47148  -47157       2   47112   47148  -47133  -47151       2
   47097   47127  -47112  -47133       2   47088   47112  -47097  -47115       2
   47088   47106  -47094  -47109       2   47091   47094  -47088  -47097       2
   47265   47268  -47274  -47283       2   47256   47274  -47265  -47277       2
   47241   47244  -47256  -47265       2   47220   47256  -47241  -47259       2
   47205   47235  -47220  -47241       2   47196   47220  -47205  -47223       2
   47196   47214  -47202  -47217       2   47199   47202  -47196  -47205       2
   47373   47376  -47382  -47391       2   47364   47382  -47373  -47385       2
   47349   47352  -47364  -47373       2   47328   47364  -47349  -47367       2
   47313   47343  -47328  -47349       2   47304   47328  -47313  -47331       2
   47304   47322  -47310  -47325       2   47307   47310  -47304  -47313       2
   47481   47484  -47490  -47499       2   47472   47490  -47481  -47493       2
   47457   47460  -47472  -47481       2   47436   47472  -47457  -47475       2
   47421   47451  -47436  -47457       2   47412   47436  -47421  -47439       2
   47412   47430  -47418  -47433       2   47415   47418  -47412  -47421       2
   47589   47592  -47598  -47607       2   47580   47598  -47589  -47601       2
   47565   47568  -47580  -47589       2   47544   47580  -47565  -47583       2
   47529   47559  -47544  -47565       2   47520   47544  -47529  -47547       2
   47520   47538  -47526  -47541       2   47523   47526  -47520  -47529       2
   47697   47700  -47706  -47715       2   47688   47706  -47697  -47709       2
   47673   47676  -47688  -47697       2   47652   47688  -47673  -47691       2
   47637   47667  -47652  -47673       2   47628   47652  -47637  -47655       2
   47628   47646  -47634  -47649       2   47631   47634  -47628  -47637       2
   47805   47808  -47814  -47823       2   47796   47814  -47805  -47817       2
   47781   47784  -47796  -47805       2   47760   47796  -47781  -47799       2
   47745   47775  -47760  -47781       2   47736   47760  -47745  -47763       2
   47736   47754  -47742  -47757       2   47739   47742  -47736  -47745       2
   47913   47916  -47922  -47931       2   47904   47922  -47913  -47925       2
   47889   47892  -47904  -47913       2   47868   47904  -47889  -47907       2
   47853   47883  -47868  -47889       2   47844   47868  -47853  -47871       2
   47844   47862  -47850  -47865       2   47847   47850  -47844  -47853       2
   48021   48024  -48030  -48039       2   48012   48030  -48021  -48033       2
   47997   48000  -48012  -48021       2   47976   48012  -47997  -48015       2
   47961   47991  -47976  -47997       2   47952   47976  -47961  -47979       2
   47952   47970  -47958  -47973       2   47955   47958  -47952  -47961       2
   48129   48132  -48138  -48147       2   48120   48138  -48129  -48141       2
   48105   48108  -48120  -48129       2   48084   48120  -48105  -48123       2
   48069   48099  -48084  -48105       2   48060   48084  -48069  -48087       2
   48060   48078  -48066  -48081       2   48063   48066  -48060  -48069       2
   48237   48240  -48246  -48255       2   48228   48246  -48237  -48249       2
   48213   48216  -48228  -48237       2   48192   48228  -48213  -48231       2
   48177   48207  -48192  -48213       2   48168   48192  -48177  -48195       2
   48168   48186  -48174  -48189       2   48171   48174  -48168  -48177       2
   48345   48348  -48354  -48363       2   48336   48354  -48345  -48357       2
   48321   48324  -48336  -48345       2   48300   48336  -48321  -48339       2
   48285   48315  -48300  -48321       2   48276   48300  -48285  -48303       2
   48276   48294  -48282  -48297       2   48279   48282  -48276  -48285       2
   48453   48456  -48462  -48471       2   48444   48462  -48453  -48465       2
   48429   48432  -48444  -48453       2   48408   48444  -48429  -48447       2
   48393   48423  -48408  -48429       2   48384   48408  -48393  -48411       2
   48384   48402  -48390  -48405       2   48387   48390  -48384  -48393       2
   48561   48564  -48570  -48579       2   48552   48570  -48561  -48573       2
   48537   48540  -48552  -48561       2   48516   48552  -48537  -48555       2
   48501   48531  -48516  -48537       2   48492   48516  -48501  -48519       2
   48492   48510  -48498  -48513       2   48495   48498  -48492  -48501       2
   48669   48672  -48678  -48687       2   48660   48678  -48669  -48681       2
   48645   48648  -48660  -48669       2   48624   48660  -48645  -48663       2
   48609   48639  -48624  -48645       2   48600   48624  -48609  -48627       2
   48600   48618  -48606  -48621       2   48603   48606  -48600  -48609       2
   48777   48780  -48786  -48795       2   48768   48786  -48777  -48789       2
   48753   48756  -48768  -48777       2   48732   48768  -48753  -48771       2
   48717   48747  -48732  -48753       2   48708   48732  -48717  -48735       2
   48708   48726  -48714  -48729       2   48711   48714  -48708  -48717       2
   48885   48888  -48894  -48903       2   48876   48894  -48885  -48897       2
   48861   48864  -48876  -48885       2   48840   48876  -48861  -48879       2
   48825   48855  -48840  -48861       2   48816   48840  -48825  -48843       2
   48816   48834  -48822  -48837       2   48819   48822  -48816  -48825       2
   48993   48996  -49002  -49011       2   48984   49002  -48993  -49005       2
   48969   48972  -48984  -48993       2   48948   48984  -48969  -48987       2
   48933   48963  -48948  -48969       2   48924   48948  -48933  -48951       2
   48924   48942  -48930  -48945       2   48927   48930  -48924  -48933       2
   49101   49104  -49110  -49119       2   49092   49110  -49101  -49113       2
   49077   49080  -49092  -49101       2   49056   49092  -49077  -49095       2
   49041   49071  -49056  -49077       2   49032   49056  -49041  -49059       2
   49032   49050  -49038  -49053       2   49035   49038  -49032  -49041       2
   49209   49212  -49218  -49227       2   49200   49218  -49209  -49221       2
   49185   49188  -49200  -49209       2   49164   49200  -49185  -49203       2
   49149   49179  -49164  -49185       2   49140   49164  -49149  -49167       2
   49140   49158  -49146  -49161       2   49143   49146  -49140  -49149       2
   49317   49320  -49326  -49335       2   49308   49326  -49317  -49329       2
   49293   49296  -49308  -49317       2   49272   49308  -49293  -49311       2
   49257   49287  -49272  -49293       2   49248   49272  -49257  -49275       2
   49248   49266  -49254  -49269       2   49251   49254  -49248  -49257       2
   49425   49428  -49434  -49443       2   49416   49434  -49425  -49437       2
   49401   49404  -49416  -49425       2   49380   49416  -49401  -49419       2
   49365   49395  -49380  -49401       2   49356   49380  -49365  -49383       2
   49356   49374  -49362  -49377       2   49359   49362  -49356  -49365       2
   49533   49536  -49542  -49551       2   49524   49542  -49533  -49545       2
   49509   49512  -49524  -49533       2   49488   49524  -49509  -49527       2
   49473   49503  -49488  -49509       2   49464   49488  -49473  -49491       2
   49464   49482  -49470  -49485       2   49467   49470  -49464  -49473       2
   49641   49644  -49650  -49659       2   49632   49650  -49641  -49653       2
   49617   49620  -49632  -49641       2   49596   49632  -49617  -49635       2
   49581   49611  -49596  -49617       2   49572   49596  -49581  -49599       2
   49572   49590  -49578  -49593       2   49575   49578  -49572  -49581       2
   49749   49752  -49758  -49767       2   49740   49758  -49749  -49761       2
   49725   49728  -49740  -49749       2   49704   49740  -49725  -49743       2
   49689   49719  -49704  -49725       2   49680   49704  -49689  -49707       2
   49680   49698  -49686  -49701       2   49683   49686  -49680  -49689       2
   49857   49860  -49866  -49875       2   49848   49866  -49857  -49869       2
   49833   49836  -49848  -49857       2   49812   49848  -49833  -49851       2
   49797   49827  -49812  -49833       2   49788   49812  -49797  -49815       2
   49788   49806  -49794  -49809       2   49791   49794  -49788  -49797       2
   49965   49968  -49974  -49983       2   49956   49974  -49965  -49977       2
   49941   49944  -49956  -49965       2   49920   49956  -49941  -49959       2
   49905   49935  -49920  -49941       2   49896   49920  -49905  -49923       2
   49896   49914  -49902  -49917       2   49899   49902  -49896  -49905       2
   50073   50076  -50082  -50091       2   50064   50082  -50073  -50085       2
   50049   50052  -50064  -50073       2   50028   50064  -50049  -50067       2
   50013   50043  -50028  -50049       2   50004   50028  -50013  -50031       2
   50004   50022  -50010  -50025       2   50007   50010  -50004  -50013       2
   50181   50184  -50190  -50199       2   50172   50190  -50181  -50193       2
   50157   50160  -50172  -50181       2   50136   50172  -50157  -50175       2
   50121   50151  -50136  -50157       2   50112   50136  -50121  -50139       2
   50112   50130  -50118  -50133       2   50115   50118  -50112  -50121       2
   50289   50292  -50298  -50307       2   50280   50298  -50289  -50301       2
   50265   50268  -50280  -50289       2   50244   50280  -50265  -50283       2
   50229   50259  -50244  -50265       2   50220   50244  -50229  -50247       2
   50220   50238  -50226  -50241       2   50223   50226  -50220  -50229       2
   50397   50400  -50406  -50415       2   50388   50406  -50397  -50409       2
   50373   50376  -50388  -50397       2   50352   50388  -50373  -50391       2
   50337   50367  -50352  -50373       2   50328   50352  -50337  -50355       2
   50328   50346  -50334  -50349       2   50331   50334  -50328  -50337       2
   50505   50508  -50514  -50523       2   50496   50514  -50505  -50517       2
   50481   50484  -50496  -50505       2   50460   50496  -50481  -50499       2
   50445   50475  -50460  -50481       2   50436   50460  -50445  -50463       2
   50436   50454  -50442  -50457       2   50439   50442  -50436  -50445       2
   50613   50616  -50622  -50631       2   50604   50622  -50613  -50625       2
   50589   50592  -50604  -50613       2   50568   50604  -50589  -50607       2
   50553   50583  -50568  -50589       2   50544   50568  -50553  -50571       2
   50544   50562  -50550  -50565       2   50547   50550  -50544  -50553       2
   50721   50724  -50730  -50739       2   50712   50730  -50721  -50733       2
   50697   50700  -50712  -50721       2   50676   50712  -50697  -50715       2
   50661   50691  -50676  -50697       2   50652   50676  -50661  -50679       2
   50652   50670  -50658  -50673       2   50655   50658  -50652  -50661       2
   50829   50832  -50838  -50847       2   50820   50838  -50829  -50841       2
   50805   50808  -50820  -50829       2   50784   50820  -50805  -50823       2
   50769   50799  -50784  -50805       2   50760   50784  -50769  -50787       2
   50760   50778  -50766  -50781       2   50763   50766  -50760  -50769       2
   50937   50940  -50946  -50955       2   50928   50946  -50937  -50949       2
   50913   50916  -50928  -50937       2   50892   50928  -50913  -50931       2
   50877   50907  -50892  -50913       2   50868   50892  -50877  -50895       2
   50868   50886  -50874  -50889       2   50871   50874  -50868  -50877       2
   51045   51048  -51054  -51063       2   51036   51054  -51045  -51057       2
   51021   51024  -51036  -51045       2   51000   51036  -51021  -51039       2
   50985   51015  -51000  -51021       2   50976   51000  -50985  -51003       2
   50976   50994  -50982  -50997       2   50979   50982  -50976  -50985       2
   51153   51156  -51162  -51171       2   51144   51162  -51153  -51165       2
   51129   51132  -51144  -51153       2   51108   51144  -51129  -51147       2
   51093   51123  -51108  -51129       2   51084   51108  -51093  -51111       2
   51084   51102  -51090  -51105       2   51087   51090  -51084  -51093       2
   51261   51264  -51270  -51279       2   51252   51270  -51261  -51273       2
   51237   51240  -51252  -51261       2   51216   51252  -51237  -51255       2
   51201   51231  -51216  -51237       2   51192   51216  -51201  -51219       2
   51192   51210  -51198  -51213       2   51195   51198  -51192  -51201       2
   51369   51372  -51378  -51387       2   51360   51378  -51369  -51381       2
   51345   51348  -51360  -51369       2   51324   51360  -51345  -51363       2
   51309   51339  -51324  -51345       2   51300   51324  -51309  -51327       2
   51300   51318  -51306  -51321       2   51303   51306  -51300  -51309       2
   51477   51480  -51486  -51495       2   51468   51486  -51477  -51489       2
   51453   51456  -51468  -51477       2   51432   51468  -51453  -51471       2
   51417   51447  -51432  -51453       2   51408   51432  -51417  -51435       2
   51408   51426  -51414  -51429       2   51411   51414  -51408  -51417       2
   51585   51588  -51594  -51603       2   51576   51594  -51585  -51597       2
   51561   51564  -51576  -51585       2   51540   51576  -51561  -51579       2
   51525   51555  -51540  -51561       2   51516   51540  -51525  -51543       2
   51516   51534  -51522  -51537       2   51519   51522  -51516  -51525       2
   51693   51696  -51702  -51711       2   51684   51702  -51693  -51705       2
   51669   51672  -51684  -51693       2   51648   51684  -51669  -51687       2
   51633   51663  -51648  -51669       2   51624   51648  -51633  -51651       2
   51624   51642  -51630  -51645       2   51627   51630  -51624  -51633       2
   51801   51804  -51810  -51819       2   51792   51810  -51801  -51813       2
   51777   51780  -51792  -51801       2   51756   51792  -51777  -51795       2
   51741   51771  -51756  -51777       2   51732   51756  -51741  -51759       2
   51732   51750  -51738  -51753       2   51735   51738  -51732  -51741       2
   51909   51912  -51918  -51927       2   51900   51918  -51909  -51921       2
   51885   51888  -51900  -51909       2   51864   51900  -51885  -51903       2
   51849   51879  -51864  -51885       2   51840   51864  -51849  -51867       2
   51840   51858  -51846  -51861       2   51843   51846  -51840  -51849       2
   52017   52020  -52026  -52035       2   52008   52026  -52017  -52029       2
   51993   51996  -52008  -52017       2   51972   52008  -51993  -52011       2
   51957   51987  -51972  -51993       2   51948   51972  -51957  -51975       2
   51948   51966  -51954  -51969       2   51951   51954  -51948  -51957       2
   52125   52128  -52134  -52143       2   52116   52134  -52125  -52137       2
   52101   52104  -52116  -52125       2   52080   52116  -52101  -52119       2
   52065   52095  -52080  -52101       2   52056   52080  -52065  -52083       2
   52056   52074  -52062  -52077       2   52059   52062  -52056  -52065       2
   52233   52236  -52242  -52251       2   52224   52242  -52233  -52245       2
   52209   52212  -52224  -52233       2   52188   52224  -52209  -52227       2
   52173   52203  -52188  -52209       2   52164   52188  -52173  -52191       2
   52164   52182  -52170  -52185       2   52167   52170  -52164  -52173       2
   52341   52344  -52350  -52359       2   52332   52350  -52341  -52353       2
   52317   52320  -52332  -52341       2   52296   52332  -52317  -52335       2
   52281   52311  -52296  -52317       2   52272   52296  -52281  -52299       2
   52272   52290  -52278  -52293       2   52275   52278  -52272  -52281       2
   52449   52452  -52458  -52467       2   52440   52458  -52449  -52461       2
   52425   52428  -52440  -52449       2   52404   52440  -52425  -52443       2
   52389   52419  -52404  -52425       2   52380   52404  -52389  -52407       2
   52380   52398  -52386  -52401       2   52383   52386  -52380  -52389       2
   52557   52560  -52566  -52575       2   52548   52566  -52557  -52569       2
   52533   52536  -52548  -52557       2   52512   52548  -52533  -52551       2
   52497   52527  -52512  -52533       2   52488   52512  -52497  -52515       2
   52488   52506  -52494  -52509       2   52491   52494  -52488  -52497       2
   52665   52668  -52674  -52683       2   52656   52674  -52665  -52677       2
   52641   52644  -52656  -52665       2   52620   52656  -52641  -52659       2
   52605   52635  -52620  -52641       2   52596   52620  -52605  -52623       2
   52596   52614  -52602  -52617       2   52599   52602  -52596  -52605       2
   52773   52776  -52782  -52791       2   52764   52782  -52773  -52785       2
   52749   52752  -52764  -52773       2   52728   52764  -52749  -52767       2
   52713   52743  -52728  -52749       2   52704   52728  -52713  -52731       2
   52704   52722  -52710  -52725       2   52707   52710  -52704  -52713       2
   52881   52884  -52890  -52899       2   52872   52890  -52881  -52893       2
   52857   52860  -52872  -52881       2   52836   52872  -52857  -52875       2
   52821   52851  -52836  -52857       2   52812   52836  -52821  -52839       2
   52812   52830  -52818  -52833       2   52815   52818  -52812  -52821       2
%FLAG EXCLUDED_ATOMS_LIST
%FORMAT(10I8)
       2       3       4       5       6       7       8       9      10      11
      12      13      14      15      16      17      18       3       4       5
       6       7       8       9      10      11      12      19       4       5
       6       7       8       9      10      11      13      14      15      19
      20       5       6       7       8       9      10      14      16      17
      18      20      21      22      23       6       7      11      12      13
      19      11      12       8      11      12      13      14      15      19
       9      11      13      14      15      16      20      10      14      15
      16      17      18      20      21      22      24      25      26      14
      16      17      18      21      23      24      12      13      19      19
      19      15      16      20      21      22      20      17      20      21
      22      23      24      25      26      27      28      29      18      21
      22      23      24      27      28      21      23       0       0      22
      23      24      25      26      27      28      30      31      32      24
      25      26      27      29      30      24      25      27      28      29
      30      31      32      33      34      35      26      27      28      29
      30      33      34      27      29      28      29      30      31      32
      33      34      36      30      31      32      33      35      36      30
      31      33      34      35      36      32      33      34      35      36
      33      35      34      35      36      36      36       0      38      39
      40      41      42      43      44      45      46      47      48      49
      50      51      52      53      54      39      40      41      42      43
      44      45      46      47      48      55      40      41      42      43
      44      45      46      47      49      50      51      55      56      41
      42      43      44      45      46      50      52      53      54      56
      57      58      59      42      43      47      48      49      55      47
      48      44      47      48      49      50      51      55      45      47
      49      50      51      52      56      46      50      51      52      53
      54      56      57      58      60      61      62      50      52      53
      54      57      59      60      48      49      55      55      55      51
      52      56      57      58      56      53      56      57      58      59
      60      61      62      63      64      65      54      57      58      59
      60      63      64      57      59       0       0      58      59      60
      61      62      63      64      66      67      68      60      61      62
      63      65      66      60      61      63      64      65      66      67
      68      69      70      71      62      63      64      65      66      69
      70      63      65      64      65      66      67      68      69      70
      72      66      67      68      69      71      72      66      67      69
      70      71      72      68      69      70      71      72      69      71
      70      71      72      72      72       0      74      75      76      77
      78      79      80      81      82      83      84      85      86      87
      88      89      90      75      76      77      78      79      80      81
      82      83      84      91      76      77      78      79      80      81
      82      83      85      86      87      91      92      77      78      79
      80      81      82      86      88      89      90      92      93      94
      95      78      79      83      84      85      91      83      84      80
      83      84      85      86      87      91      81      83      85      86
      87      88      92      82      86      87      88      89      90      92
      93      94      96      97      98      86      88      89      90      93
      95      96      84      85      91      91      91      87      88      92
      93      94      92      89      92      93      94      95      96      97
      98      99     100     101      90      93      94      95      96      99
     100      93      95       0       0      94      95      96      97      98
      99     100     102     103     104      96      97      98      99     101
     102      96      97      99     100     101     102     103     104     105
     106     107      98      99     100     101     102     105     106      99
     101     100     101     102     103     104     105     106     108     102
     103     104     105     107     108     102     103     105     106     107
     108     104     105     106     107     108     105     107     106     107
     108     108     108       0     110     111     112     113     114     115
     116     117     118     119     120     121     122     123     124     125
     126     111     112     113     114     115     116     117     118     119
     120     127     112     113     114     115     116     117     118     119
     121     122     123     127     128     113     114     115     116     117
     118     122     124     125     126     128     129     130     131     114
     115     119     120     121     127     119     120     116     119     120
     121     122     123     127     117     119     121     122     123     124
     128     118     122     123     124     125     126     128     129     130
     132     133     134     122     124     125     126     129     131     132
     120     121     127     127     127     123     124     128     129     130
     128     125     128     129     130     131     132     133     134     135
     136     137     126     129     130     131     132     135     136     129
     131       0       0     130     131     132     133     134     135     136
     138     139     140     132     133     134     135     137     138     132
     133     135     136     137     138     139     140     141     142     143
     134     135     136     137     138     141     142     135     137     136
     137     138     139     140     141     142     144     138     139     140
     141     143     144     138     139     141     142     143     144     140
     141     142     143     144     141     143     142     143     144     144
     144       0     146     147     148     149     150     151     152     153
     154     155     156     157     158     159     160     161     162     147
     148     149     150     151     152     153     154     155     156     163
     148     149     150     151     152     153     154     155     157     158
     159     163     164     149     150     151     152     153     154     158
     160     161     162     164     165     166     167     150     151     155
     156     157     163     155     156     152     155     156     157     158
     159     163     153     155     157     158     159     160     164     154
     158     159     160     161     162     164     165     166     168     169
     170     158     160     161     162     165     167     168     156     157
     163     163     163     159     160     164     165     166     164     161
     164     165     166     167     168     169     170     171     172     173
     162     165     166     167     168     171     172     165     167       0
       0     166     167     168     169     170     171     172     174     175
     176     168     169     170     171     173     174     168     169     171
     172     173     174     175     176     177     178     179     170     171
     172     173     174     177     178     171     173     172     173     174
     175     176     177     178     180     174     175     176     177     179
     180     174     175     177     178     179     180     176     177     178
     179     180     177     179     178     179     180     180     180       0
     182     183     184     185     186     187     188     189     190     191
     192     193     194     195     196     197     198     183     184     185
     186     187     188     189     190     191     192     199     184     185
     186     187     188     189     190     191     193     194     195     199
     200     185     186     187     188     189     190     194     196     197
     198     200     201     202     203     186     187     191     192     193
     199     191     192     188     191     192     193     194     195     199
     189     191     193     194     195     196     200     190     194     195
     196     197     198     200     201     202     204     205     206     194
     196     197     198     201     203     204     192     193     199     199
     199     195     196     200     201     202     200     197     200     201
     202     203     204     205     206     207     208     209     198     201
     202     203     204     207     208     201     203       0       0     202
     203     204     205     206     207     208     210     211     212     204
     205     206     207     209     210     204     205     207     208     209
     210     211     212     213     214     215     206     207     208     209
     210     213     214     207     209     208     209     210     211     212
     213     214     216     210     211     212     213     215     216     210
     211     213     214     215     216     212     213     214     215     216
     213     215     214     215     216     216     216       0     218     219
     220     221     222     223     224     225     226     227     228     229
     230     231     232     233     234     219     220     221     222     223
     224     225     226     227     228     235     220     221     222     223
     224     225     226     227     229     230     231     235     236     221
     222     223     224     225     226     230     232     233     234     236
     237     238     239     222     223     227     228     229     235     227
     228     224     227     228     229     230     231     235     225     227
     229     230     231     232     236     226     230     231     232     233
     234     236     237     238     240     241     242     230     232     233
     234     237     239     240     228     229     235     235     235     231
     232     236     237     238     236     233     236     237     238     239
     240     241     242     243     244     245     234     237     238     239
     240     243     244     237     239       0       0     238     239     240
     241     242     243     244     246     247     248     240     241     242
     243     245     246     240     241     243     244     245     246     247
     248     249     250     251     242     243     244     245     246     249
     250     243     245     244     245     246     247     248     249     250
     252     246     247     248     249     251     252     246     247     249
     250     251     252     248     249     250     251     252     249     251
     250     251     252     252     252       0     254     255     256     257
     258     259     260     261     262     263     264     265     266     267
     268     269     270     255     256     257     258     259     260     261
     262     263     264     271     256     257     258     259     260     261
     262     263     265     266     267     271     272     257     258     259
     260     261     262     266     268     269     270     272     273     274
     275     258     259     263     264     265     271     263     264     260
     263     264     265     266     267     271     261     263     265     266
     267     268     272     262     266     267     268     269     270     272
     273     274     276     277     278     266     268     269     270     273
     275     276     264     265     271     271     271     267     268     272
     273     274     272     269     272     273     274     275     276     277
     278     279     280     281     270     273     274     275     276     279
     280     273     275       0       0     274     275     276     277     278
     279     280     282     283     284     276     277     278     279     281
     282     276     277     279     280     281     282     283     284     285
     286     287     278     279     280     281     282     285     286     279
     281     280     281     282     283     284     285     286     288     282
     283     284     285     287     288     282     283     285     286     287
     288     284     285     286     287     288     285     287     286     287
     288     288     288       0     290     291     292     293     294     295
     296     297     298     299     300     301     302     303     304     305
     306     291     292     293     294     295     296     297     298     299
     300     307     292     293     294     295     296     297     298     299
     301     302     303     307     308     293     294     295     296     297
     298     302     304     305     306     308     309     310     311     294
     295     299     300     301     307     299     300     296     299     300
     301     302     303     307     297     299     301     302     303     304
     308     298     302     303     304     305     306     308     309     310
     312     313     314     302     304     305     306     309     311     312
     300     301     307     307     307     303     304     308     309     310
     308     305     308     309     310     311     312     313     314     315
     316     317     306     309     310     311     312     315     316     309
     311       0       0     310     311     312     313     314     315     316
     318     319     320     312     313     314     315     317     318     312
     313     315     316     317     318     319     320     321     322     323
     314     315     316     317     318     321     322     315     317     316
     317     318     319     320     321     322     324     318     319     320
     321     323     324     318     319     321     322     323     324     320
     321     322     323     324     321     323     322     323     324     324
     324       0     326     327     328     329     330     331     332     333
     334     335     336     337     338     339     340     341     342     327
     328     329     330     331     332     333     334     335     336     343
     328     329     330     331     332     333     334     335     337     338
     339     343     344     329     330     331     332     333     334     338
     340     341     342     344     345     346     347     330     331     335
     336     337     343     335     336     332     335     336     337     338
     339     343     333     335     337     338     339     340     344     334
     338     339     340     341     342     344     345     346     348     349
     350     338     340     341     342     345     347     348     336     337
     343     343     343     339     340     344     345     346     344     341
     344     345     346     347     348     349     350     351     352     353
     342     345     346     347     348     351     352     345     347       0
       0     346     347     348     349     350     351     352     354     355
     356     348     349     350     351     353     354     348     349     351
     352     353     354     355     356     357     358     359     350     351
     352     353     354     357     358     351     353     352     353     354
     355     356     357     358     360     354     355     356     357     359
     360     354     355     357     358     359     360     356     357     358
     359     360     357     359     358     359     360     360     360       0
     362     363     364     365     366     367     368     369     370     371
     372     373     374     375     376     377     378     363     364     365
     366     367     368     369     370     371     372     379     364     365
     366     367     368     369     370     371     373     374     375     379
     380     365     366     367     368     369     370     374     376     377
     378     380     381     382     383     366     367     371     372     373
     379     371     372     368     371     372     373     374     375     379
     369     371     373     374     375     376     380     370     374     375
     376     377     378     380     381     382     384     385     386     374
     376     377     378     381     383     384     372     373     379     379
     379     375     376     380     381     382     380     377     380     381
     382     383     384     385     386     387     388     389     378     381
     382     383     384     387     388     381     383       0       0     382
     383     384     385     386     387     388     390     391     392     384
     385     386     387     389     390     384     385     387     388     389
     390     391     392     393     394     395     386     387     388     389
     390     393     394     387     389     388     389     390     391     392
     393     394     396     390     391     392     393     395     396     390
     391     393     394     395     396     392     393     394     395     396
     393     395     394     395     396     396     396       0     398     399
     400     401     402     403     404     405     406     407     408     409
     410     411     412     413     414     399     400     401     402     403
     404     405     406     407     408     415     400     401     402     403
     404     405     406     407     409     410     411     415     416     401
     402     403     404     405     406     410     412     413     414     416
     417     418     419     402     403     407     408     409     415     407
     408     404     407     408     409     410     411     415     405     407
     409     410     411     412     416     406     410     411     412     413
     414     416     417     418     420     421     422     410     412     413
     414     417     419     420     408     409     415     415     415     411
     412     416     417     418     416     413     416     417     418     419
     420     421     422     423     424     425     414     417     418     419
     420     423     424     417     419       0       0     418     419     420
     421     422     423     424     426     427     428     420     421     422
     423     425     426     420     421     423     424     425     426     427
     428     429     430     431     422     423     424     425     426     429
     430     423     425     424     425     426     427     428     429     430
     432     426     427     428     429     431     432     426     427     429
     430     431     432     428     429     430     431     432     429     431
     430     431     432     432     432       0     434     435     436     437
     438     439     440     441     442     443     444     445     446     447
     448     449     450     435     436     437     438     439     440     441
     442     443     444     451     436     437     438     439     440     441
     442     443     445     446     447     451     452     437     438     439
     440     441     442     446     448     449     450     452     453     454
     455     438     439     443     444     445     451     443     444     440
     443     444     445     446     447     451     441     443     445     446
     447     448     452     442     446     447     448     449     450     452
     453     454     456     457     458     446     448     449     450     453
     455     456     444     445     451     451     451     447     448     452
     453     454     452     449     452     453     454     455     456     457
     458     459     460     461     450     453     454     455     456     459
     460     453     455       0       0     454     455     456     457     458
     459     460     462     463     464     456     457     458     459     461
     462     456     457     459     460     461     462     463     464     465
     466     467     458     459     460     461     462     465     466     459
     461     460     461     462     463     464     465     466     468     462
     463     464     465     467     468     462     463     465     466     467
     468     464     465     466     467     468     465     467     466     467
     468     468     468       0     470     471     472     473     474     475
     476     477     478     479     480     481     482     483     484     485
     486     471     472     473     474     475     476     477     478     479
     480     487     472     473     474     475     476     477     478     479
     481     482     483     487     488     473     474     475     476     477
     478     482     484     485     486     488     489     490     491     474
     475     479     480     481     487     479     480     476     479     480
     481     482     483     487     477     479     481     482     483     484
     488     478     482     483     484     485     486     488     489     490
     492     493     494     482     484     485     486     489     491     492
     480     481     487     487     487     483     484     488     489     490
     488     485     488     489     490     491     492     493     494     495
     496     497     486     489     490     491     492     495     496     489
     491       0       0     490     491     492     493     494     495     496
     498     499     500     492     493     494     495     497     498     492
     493     495     496     497     498     499     500     501     502     503
     494     495     496     497     498     501     502     495     497     496
     497     498     499     500     501     502     504     498     499     500
     501     503     504     498     499     501     502     503     504     500
     501     502     503     504     501     503     502     503     504     504
     504       0     506     507     508     509     510     511     512     513
     514     515     516     517     518     519     520     521     522     507
     508     509     510     511     512     513     514     515     516     523
     508     509     510     511     512     513     514     515     517     518
     519     523     524     509     510     511     512     513     514     518
     520     521     522     524     525     526     527     510     511     515
     516     517     523     515     516     512     515     516     517     518
     519     523     513     515     517     518     519     520     524     514
     518     519     520     521     522     524     525     526     528     529
     530     518     520     521     522     525     527     528     516     517
     523     523     523     519     520     524     525     526     524     521
     524     525     526     527     528     529     530     531     532     533
     522     525     526     527     528     531     532     525     527       0
       0     526     527     528     529     530     531     532     534     535
     536     528     529     530     531     533     534     528     529     531
     532     533     534     535     536     537     538     539     530     531
     532     533     534     537     538     531     533     532     533     534
     535     536     537     538     540     534     535     536     537     539
     540     534     535     537     538     539     540     536     537     538
     539     540     537     539     538     539     540     540     540       0
     542     543     544     545     546     547     548     549     550     551
     552     553     554     555     556     557     558     543     544     545
     546     547     548     549     550     551     552     559     544     545
     546     547     548     549     550     551     553     554     555     559
     560     545     546     547     548     549     550     554     556     557
     558     560     561     562     563     546     547     551     552     553
     559     551     552     548     551     552     553     554     555     559
     549     551     553     554     555     556     560     550     554     555
     556     557     558     560     561     562     564     565     566     554
     556     557     558     561     563     564     552     553     559     559
     559     555     556     560     561     562     560     557     560     561
     562     563     564     565     566     567     568     569     558     561
     562     563     564     567     568     561     563       0       0     562
     563     564     565     566     567     568     570     571     572     564
     565     566     567     569     570     564     565     567     568     569
     570     571     572     573     574     575     566     567     568     569
     570     573     574     567     569     568     569     570     571     572
     573     574     576     570     571     572     573     575     576     570
     571     573     574     575     576     572     573     574     575     576
     573     575     574     575     576     576     576       0     578     579
     580     581     582     583     584     585     586     587     588     589
     590     591     592     593     594     579     580     581     582     583
     584     585     586     587     588     595     580     581     582     583
     584     585     586     587     589     590     591     595     596     581
     582     583     584     585     586     590     592     593     594     596
     597     598     599     582     583     587     588     589     595     587
     588     584     587     588     589     590     591     595     585     587
     589     590     591     592     596     586     590     591     592     593
     594     596     597     598     600     601     602     590     592     593
     594     597     599     600     588     589     595     595     595     591
     592     596     597     598     596     593     596     597     598     599
     600     601     602     603     604     605     594     597     598     599
     600     603     604     597     599       0       0     598     599     600
     601     602     603     604     606     607     608     600     601     602
     603     605     606     600     601     603     604     605     606     607
     608     609     610     611     602     603     604     605     606     609
     610     603     605     604     605     606     607     608     609     610
     612     606     607     608     609     611     612     606     607     609
     610     611     612     608     609     610     611     612     609     611
     610     611     612     612     612       0     614     615     616     617
     618     619     620     621     622     623     624     625     626     627
     628     629     630     615     616     617     618     619     620     621
     622     623     624     631     616     617     618     619     620     621
     622     623     625     626     627     631     632     617     618     619
     620     621     622     626     628     629     630     632     633     634
     635     618     619     623     624     625     631     623     624     620
     623     624     625     626     627     631     621     623     625     626
     627     628     632     622     626     627     628     629     630     632
     633     634     636     637     638     626     628     629     630     633
     635     636     624     625     631     631     631     627     628     632
     633     634     632     629     632     633     634     635     636     637
     638     639     640     641     630     633     634     635     636     639
     640     633     635       0       0     634     635     636     637     638
     639     640     642     643     644     636     637     638     639     641
     642     636     637     639     640     641     642     643     644     645
     646     647     638     639     640     641     642     645     646     639
     641     640     641     642     643     644     645     646     648     642
     643     644     645     647     648     642     643     645     646     647
     648     644     645     646     647     648     645     647     646     647
     648     648     648       0     650     651     652     653     654     655
     656     657     658     659     660     661     662     663     664     665
     666     651     652     653     654     655     656     657     658     659
     660     667     652     653     654     655     656     657     658     659
     661     662     663     667     668     653     654     655     656     657
     658     662     664     665     666     668     669     670     671     654
     655     659     660     661     667     659     660     656     659     660
     661     662     663     667     657     659     661     662     663     664
     668     658     662     663     664     665     666     668     669     670
     672     673     674     662     664     665     666     669     671     672
     660     661     667     667     667     663     664     668     669     670
     668     665     668     669     670     671     672     673     674     675
     676     677     666     669     670     671     672     675     676     669
     671       0       0     670     671     672     673     674     675     676
     678     679     680     672     673     674     675     677     678     672
     673     675     676     677     678     679     680     681     682     683
     674     675     676     677     678     681     682     675     677     676
     677     678     679     680     681     682     684     678     679     680
     681     683     684     678     679     681     682     683     684     680
     681     682     683     684     681     683     682     683     684     684
     684       0     686     687     688     689     690     691     692     693
     694     695     696     697     698     699     700     701     702     687
     688     689     690     691     692     693     694     695     696     703
     688     689     690     691     692     693     694     695     697     698
     699     703     704     689     690     691     692     693     694     698
     700     701     702     704     705     706     707     690     691     695
     696     697     703     695     696     692     695     696     697     698
     699     703     693     695     697     698     699     700     704     694
     698     699     700     701     702     704     705     706     708     709
     710     698     700     701     702     705     707     708     696     697
     703     703     703     699     700     704     705     706     704     701
     704     705     706     707     708     709     710     711     712     713
     702     705     706     707     708     711     712     705     707       0
       0     706     707     708     709     710     711     712     714     715
     716     708     709     710     711     713     714     708     709     711
     712     713     714     715     716     717     718     719     710     711
     712     713     714     717     718     711     713     712     713     714
     715     716     717     718     720     714     715     716     717     719
     720     714     715     717     718     719     720     716     717     718
     719     720     717     719     718     719     720     720     720       0
     722     723     724     725     726     727     728     729     730     731
     732     733     734     735     736     737     738     723     724     725
     726     727     728     729     730     731     732     739     724     725
     726     727     728     729     730     731     733     734     735     739
     740     725     726     727     728     729     730     734     736     737
     738     740     741     742     743     726     727     731     732     733
     739     731     732     728     731     732     733     734     735     739
     729     731     733     734     735     736     740     730     734     735
     736     737     738     740     741     742     744     745     746     734
     736     737     738     741     743     744     732     733     739     739
     739     735     736     740     741     742     740     737     740     741
     742     743     744     745     746     747     748     749     738     741
     742     743     744     747     748     741     743       0       0     742
     743     744     745     746     747     748     750     751     752     744
     745     746     747     749     750     744     745     747     748     749
     750     751     752     753     754     755     746     747     748     749
     750     753     754     747     749     748     749     750     751     752
     753     754     756     750     751     752     753     755     756     750
     751     753     754     755     756     752     753     754     755     756
     753     755     754     755     756     756     756       0     758     759
     760     761     762     763     764     765     766     767     768     769
     770     771     772     773     774     759     760     761     762     763
     764     765     766     767     768     775     760     761     762     763
     764     765     766     767     769     770     771     775     776     761
     762     763     764     765     766     770     772     773     774     776
     777     778     779     762     763     767     768     769     775     767
     768     764     767     768     769     770     771     775     765     767
     769     770     771     772     776     766     770     771     772     773
     774     776     777     778     780     781     782     770     772     773
     774     777     779     780     768     769     775     775     775     771
     772     776     777     778     776     773     776     777     778     779
     780     781     782     783     784     785     774     777     778     779
     780     783     784     777     779       0       0     778     779     780
     781     782     783     784     786     787     788     780     781     782
     783     785     786     780     781     783     784     785     786     787
     788     789     790     791     782     783     784     785     786     789
     790     783     785     784     785     786     787     788     789     790
     792     786     787     788     789     791     792     786     787     789
     790     791     792     788     789     790     791     792     789     791
     790     791     792     792     792       0     794     795     796     797
     798     799     800     801     802     803     804     805     806     807
     808     809     810     795     796     797     798     799     800     801
     802     803     804     811     796     797     798     799     800     801
     802     803     805     806     807     811     812     797     798     799
     800     801     802     806     808     809     810     812     813     814
     815     798     799     803     804     805     811     803     804     800
     803     804     805     806     807     811     801     803     805     806
     807     808     812     802     806     807     808     809     810     812
     813     814     816     817     818     806     808     809     810     813
     815     816     804     805     811     811     811     807     808     812
     813     814     812     809     812     813     814     815     816     817
     818     819     820     821     810     813     814     815     816     819
     820     813     815       0       0     814     815     816     817     818
     819     820     822     823     824     816     817     818     819     821
     822     816     817     819     820     821     822     823     824     825
     826     827     818     819     820     821     822     825     826     819
     821     820     821     822     823     824     825     826     828     822
     823     824     825     827     828     822     823     825     826     827
     828     824     825     826     827     828     825     827     826     827
     828     828     828       0     830     831     832     833     834     835
     836     837     838     839     840     841     842     843     844     845
     846     831     832     833     834     835     836     837     838     839
     840     847     832     833     834     835     836     837     838     839
     841     842     843     847     848     833     834     835     836     837
     838     842     844     845     846     848     849     850     851     834
     835     839     840     841     847     839     840     836     839     840
     841     842     843     847     837     839     841     842     843     844
     848     838     842     843     844     845     846     848     849     850
     852     853     854     842     844     845     846     849     851     852
     840     841     847     847     847     843     844     848     849     850
     848     845     848     849     850     851     852     853     854     855
     856     857     846     849     850     851     852     855     856     849
     851       0       0     850     851     852     853     854     855     856
     858     859     860     852     853     854     855     857     858     852
     853     855     856     857     858     859     860     861     862     863
     854     855     856     857     858     861     862     855     857     856
     857     858     859     860     861     862     864     858     859     860
     861     863     864     858     859     861     862     863     864     860
     861     862     863     864     861     863     862     863     864     864
     864       0     866     867     868     869     870     871     872     873
     874     875     876     877     878     879     880     881     882     867
     868     869     870     871     872     873     874     875     876     883
     868     869     870     871     872     873     874     875     877     878
     879     883     884     869     870     871     872     873     874     878
     880     881     882     884     885     886     887     870     871     875
     876     877     883     875     876     872     875     876     877     878
     879     883     873     875     877     878     879     880     884     874
     878     879     880     881     882     884     885     886     888     889
     890     878     880     881     882     885     887     888     876     877
     883     883     883     879     880     884     885     886     884     881
     884     885     886     887     888     889     890     891     892     893
     882     885     886     887     888     891     892     885     887       0
       0     886     887     888     889     890     891     892     894     895
     896     888     889     890     891     893     894     888     889     891
     892     893     894     895     896     897     898     899     890     891
     892     893     894     897     898     891     893     892     893     894
     895     896     897     898     900     894     895     896     897     899
     900     894     895     897     898     899     900     896     897     898
     899     900     897     899     898     899     900     900     900       0
     902     903     904     905     906     907     908     909     910     911
     912     913     914     915     916     917     918     903     904     905
     906     907     908     909     910     911     912     919     904     905
     906     907     908     909     910     911     913     914     915     919
     920     905     906     907     908     909     910     914     916     917
     918     920     921     922     923     906     907     911     912     913
     919     911     912     908     911     912     913     914     915     919
     909     911     913     914     915     916     920     910     914     915
     916     917     918     920     921     922     924     925     926     914
     916     917     918     921     923     924     912     913     919     919
     919     915     916     920     921     922     920     917     920     921
     922     923     924     925     926     927     928     929     918     921
     922     923     924     927     928     921     923       0       0     922
     923     924     925     926     927     928     930     931     932     924
     925     926     927     929     930     924     925     927     928     929
     930     931     932     933     934     935     926     927     928     929
     930     933     934     927     929     928     929     930     931     932
     933     934     936     930     931     932     933     935     936     930
     931     933     934     935     936     932     933     934     935     936
     933     935     934     935     936     936     936       0     938     939
     940     941     942     943     944     945     946     947     948     949
     950     951     952     953     954     939     940     941     942     943
     944     945     946     947     948     955     940     941     942     943
     944     945     946     947     949     950     951     955     956     941
     942     943     944     945     946     950     952     953     954     956
     957     958     959     942     943     947     948     949     955     947
     948     944     947     948     949     950     951     955     945     947
     949     950     951     952     956     946     950     951     952     953
     954     956     957     958     960     961     962     950     952     953
     954     957     959     960     948     949     955     955     955     951
     952     956     957     958     956     953     956     957     958     959
     960     961     962     963     964     965     954     957     958     959
     960     963     964     957     959       0       0     958     959     960
     961     962     963     964     966     967     968     960     961     962
     963     965     966     960     961     963     964     965     966     967
     968     969     970     971     962     963     964     965     966     969
     970     963     965     964     965     966     967     968     969     970
     972     966     967     968     969     971     972     966     967     969
     970     971     972     968     969     970     971     972     969     971
     970     971     972     972     972       0     974     975     976     977
     978     979     980     981     982     983     984     985     986     987
     988     989     990     975     976     977     978     979     980     981
     982     983     984     991     976     977     978     979     980     981
     982     983     985     986     987     991     992     977     978     979
     980     981     982     986     988     989     990     992     993     994
     995     978     979     983     984     985     991     983     984     980
     983     984     985     986     987     991     981     983     985     986
     987     988     992     982     986     987     988     989     990     992
     993     994     996     997     998     986     988     989     990     993
     995     996     984     985     991     991     991     987     988     992
     993     994     992     989     992     993     994     995     996     997
     998     999    1000    1001     990     993     994     995     996     999
    1000     993     995       0       0     994     995     996     997     998
     999    1000    1002    1003    1004     996     997     998     999    1001
    1002     996     997     999    1000    1001    1002    1003    1004    1005
    1006    1007     998     999    1000    1001    1002    1005    1006     999
    1001    1000    1001    1002    1003    1004    1005    1006    1008    1002
    1003    1004    1005    1007    1008    1002    1003    1005    1006    1007
    1008    1004    1005    1006    1007    1008    1005    1007    1006    1007
    1008    1008    1008       0    1010    1011    1012    1013    1014    1015
    1016    1017    1018    1019    1020    1021    1022    1023    1024    1025
    1026    1011    1012    1013    1014    1015    1016    1017    1018    1019
    1020    1027    1012    1013    1014    1015    1016    1017    1018    1019
    1021    1022    1023    1027    1028    1013    1014    1015    1016    1017
    1018    1022    1024    1025    1026    1028    1029    1030    1031    1014
    1015    1019    1020    1021    1027    1019    1020    1016    1019    1020
    1021    1022    1023    1027    1017    1019    1021    1022    1023    1024
    1028    1018    1022    1023    1024    1025    1026    1028    1029    1030
    1032    1033    1034    1022    1024    1025    1026    1029    1031    1032
    1020    1021    1027    1027    1027    1023    1024    1028    1029    1030
    1028    1025    1028    1029    1030    1031    1032    1033    1034    1035
    1036    1037    1026    1029    1030    1031    1032    1035    1036    1029
    1031       0       0    1030    1031    1032    1033    1034    1035    1036
    1038    1039    1040    1032    1033    1034    1035    1037    1038    1032
    1033    1035    1036    1037    1038    1039    1040    1041    1042    1043
    1034    1035    1036    1037    1038    1041    1042    1035    1037    1036
    1037    1038    1039    1040    1041    1042    1044    1038    1039    1040
    1041    1043    1044    1038    1039    1041    1042    1043    1044    1040
    1041    1042    1043    1044    1041    1043    1042    1043    1044    1044
    1044       0    1046    1047    1048    1049    1050    1051    1052    1053
    1054    1055    1056    1057    1058    1059    1060    1061    1062    1047
    1048    1049    1050    1051    1052    1053    1054    1055    1056    1063
    1048    1049    1050    1051    1052    1053    1054    1055    1057    1058
    1059    1063    1064    1049    1050    1051    1052    1053    1054    1058
    1060    1061    1062    1064    1065    1066    1067    1050    1051    1055
    1056    1057    1063    1055    1056    1052    1055    1056    1057    1058
    1059    1063    1053    1055    1057    1058    1059    1060    1064    1054
    1058    1059    1060    1061    1062    1064    1065    1066    1068    1069
    1070    1058    1060    1061    1062    1065    1067    1068    1056    1057
    1063    1063    1063    1059    1060    1064    1065    1066    1064    1061
    1064    1065    1066    1067    1068    1069    1070    1071    1072    1073
    1062    1065    1066    1067    1068    1071    1072    1065    1067       0
       0    1066    1067    1068    1069    1070    1071    1072    1074    1075
    1076    1068    1069    1070    1071    1073    1074    1068    1069    1071
    1072    1073    1074    1075    1076    1077    1078    1079    1070    1071
    1072    1073    1074    1077    1078    1071    1073    1072    1073    1074
    1075    1076    1077    1078    1080    1074    1075    1076    1077    1079
    1080    1074    1075    1077    1078    1079    1080    1076    1077    1078
    1079    1080    1077    1079    1078    1079    1080    1080    1080       0
    1082    1083    1084    1085    1086    1087    1088    1089    1090    1091
    1092    1093    1094    1095    1096    1097    1098    1083    1084    1085
    1086    1087    1088    1089    1090    1091    1092    1099    1084    1085
    1086    1087    1088    1089    1090    1091    1093    1094    1095    1099
    1100    1085    1086    1087    1088    1089    1090    1094    1096    1097
    1098    1100    1101    1102    1103    1086    1087    1091    1092    1093
    1099    1091    1092    1088    1091    1092    1093    1094    1095    1099
    1089    1091    1093    1094    1095    1096    1100    1090    1094    1095
    1096    1097    1098    1100    1101    1102    1104    1105    1106    1094
    1096    1097    1098    1101    1103    1104    1092    1093    1099    1099
    1099    1095    1096    1100    1101    1102    1100    1097    1100    1101
    1102    1103    1104    1105    1106    1107    1108    1109    1098    1101
    1102    1103    1104    1107    1108    1101    1103       0       0    1102
    1103    1104    1105    1106    1107    1108    1110    1111    1112    1104
    1105    1106    1107    1109    1110    1104    1105    1107    1108    1109
    1110    1111    1112    1113    1114    1115    1106    1107    1108    1109
    1110    1113    1114    1107    1109    1108    1109    1110    1111    1112
    1113    1114    1116    1110    1111    1112    1113    1115    1116    1110
    1111    1113    1114    1115    1116    1112    1113    1114    1115    1116
    1113    1115    1114    1115    1116    1116    1116       0    1118    1119
    1120    1121    1122    1123    1124    1125    1126    1127    1128    1129
    1130    1131    1132    1133    1134    1119    1120    1121    1122    1123
    1124    1125    1126    1127    1128    1135    1120    1121    1122    1123
    1124    1125    1126    1127    1129    1130    1131    1135    1136    1121
    1122    1123    1124    1125    1126    1130    1132    1133    1134    1136
    1137    1138    1139    1122    1123    1127    1128    1129    1135    1127
    1128    1124    1127    1128    1129    1130    1131    1135    1125    1127
    1129    1130    1131    1132    1136    1126    1130    1131    1132    1133
    1134    1136    1137    1138    1140    1141    1142    1130    1132    1133
    1134    1137    1139    1140    1128    1129    1135    1135    1135    1131
    1132    1136    1137    1138    1136    1133    1136    1137    1138    1139
    1140    1141    1142    1143    1144    1145    1134    1137    1138    1139
    1140    1143    1144    1137    1139       0       0    1138    1139    1140
    1141    1142    1143    1144    1146    1147    1148    1140    1141    1142
    1143    1145    1146    1140    1141    1143    1144    1145    1146    1147
    1148    1149    1150    1151    1142    1143    1144    1145    1146    1149
    1150    1143    1145    1144    1145    1146    1147    1148    1149    1150
    1152    1146    1147    1148    1149    1151    1152    1146    1147    1149
    1150    1151    1152    1148    1149    1150    1151    1152    1149    1151
    1150    1151    1152    1152    1152       0    1154    1155    1156    1157
    1158    1159    1160    1161    1162    1163    1164    1165    1166    1167
    1168    1169    1170    1155    1156    1157    1158    1159    1160    1161
    1162    1163    1164    1171    1156    1157    1158    1159    1160    1161
    1162    1163    1165    1166    1167    1171    1172    1157    1158    1159
    1160    1161    1162    1166    1168    1169    1170    1172    1173    1174
    1175    1158    1159    1163    1164    1165    1171    1163    1164    1160
    1163    1164    1165    1166    1167    1171    1161    1163    1165    1166
    1167    1168    1172    1162    1166    1167    1168    1169    1170    1172
    1173    1174    1176    1177    1178    1166    1168    1169    1170    1173
    1175    1176    1164    1165    1171    1171    1171    1167    1168    1172
    1173    1174    1172    1169    1172    1173    1174    1175    1176    1177
    1178    1179    1180    1181    1170    1173    1174    1175    1176    1179
    1180    1173    1175       0       0    1174    1175    1176    1177    1178
    1179    1180    1182    1183    1184    1176    1177    1178    1179    1181
    1182    1176    1177    1179    1180    1181    1182    1183    1184    1185
    1186    1187    1178    1179    1180    1181    1182    1185    1186    1179
    1181    1180    1181    1182    1183    1184    1185    1186    1188    1182
    1183    1184    1185    1187    1188    1182    1183    1185    1186    1187
    1188    1184    1185    1186    1187    1188    1185    1187    1186    1187
    1188    1188    1188       0    1190    1191    1192    1193    1194    1195
    1196    1197    1198    1199    1200    1201    1202    1203    1204    1205
    1206    1191    1192    1193    1194    1195    1196    1197    1198    1199
    1200    1207    1192    1193    1194    1195    1196    1197    1198    1199
    1201    1202    1203    1207    1208    1193    1194    1195    1196    1197
    1198    1202    1204    1205    1206    1208    1209    1210    1211    1194
    1195    1199    1200    1201    1207    1199    1200    1196    1199    1200
    1201    1202    1203    1207    1197    1199    1201    1202    1203    1204
    1208    1198    1202    1203    1204    1205    1206    1208    1209    1210
    1212    1213    1214    1202    1204    1205    1206    1209    1211    1212
    1200    1201    1207    1207    1207    1203    1204    1208    1209    1210
    1208    1205    1208    1209    1210    1211    1212    1213    1214    1215
    1216    1217    1206    1209    1210    1211    1212    1215    1216    1209
    1211       0       0    1210    1211    1212    1213    1214    1215    1216
    1218    1219    1220    1212    1213    1214    1215    1217    1218    1212
    1213    1215    1216    1217    1218    1219    1220    1221    1222    1223
    1214    1215    1216    1217    1218    1221    1222    1215    1217    1216
    1217    1218    1219    1220    1221    1222    1224    1218    1219    1220
    1221    1223    1224    1218    1219    1221    1222    1223    1224    1220
    1221    1222    1223    1224    1221    1223    1222    1223    1224    1224
    1224       0    1226    1227    1228    1229    1230    1231    1232    1233
    1234    1235    1236    1237    1238    1239    1240    1241    1242    1227
    1228    1229    1230    1231    1232    1233    1234    1235    1236    1243
    1228    1229    1230    1231    1232    1233    1234    1235    1237    1238
    1239    1243    1244    1229    1230    1231    1232    1233    1234    1238
    1240    1241    1242    1244    1245    1246    1247    1230    1231    1235
    1236    1237    1243    1235    1236    1232    1235    1236    1237    1238
    1239    1243    1233    1235    1237    1238    1239    1240    1244    1234
    1238    1239    1240    1241    1242    1244    1245    1246    1248    1249
    1250    1238    1240    1241    1242    1245    1247    1248    1236    1237
    1243    1243    1243    1239    1240    1244    1245    1246    1244    1241
    1244    1245    1246    1247    1248    1249    1250    1251    1252    1253
    1242    1245    1246    1247    1248    1251    1252    1245    1247       0
       0    1246    1247    1248    1249    1250    1251    1252    1254    1255
    1256    1248    1249    1250    1251    1253    1254    1248    1249    1251
    1252    1253    1254    1255    1256    1257    1258    1259    1250    1251
    1252    1253    1254    1257    1258    1251    1253    1252    1253    1254
    1255    1256    1257    1258    1260    1254    1255    1256    1257    1259
    1260    1254    1255    1257    1258    1259    1260    1256    1257    1258
    1259    1260    1257    1259    1258    1259    1260    1260    1260       0
    1262    1263    1264    1265    1266    1267    1268    1269    1270    1271
    1272    1273    1274    1275    1276    1277    1278    1263    1264    1265
    1266    1267    1268    1269    1270    1271    1272    1279    1264    1265
    1266    1267    1268    1269    1270    1271    1273    1274    1275    1279
    1280    1265    1266    1267    1268    1269    1270    1274    1276    1277
    1278    1280    1281    1282    1283    1266    1267    1271    1272    1273
    1279    1271    1272    1268    1271    1272    1273    1274    1275    1279
    1269    1271    1273    1274    1275    1276    1280    1270    1274    1275
    1276    1277    1278    1280    1281    1282    1284    1285    1286    1274
    1276    1277    1278    1281    1283    1284    1272    1273    1279    1279
    1279    1275    1276    1280    1281    1282    1280    1277    1280    1281
    1282    1283    1284    1285    1286    1287    1288    1289    1278    1281
    1282    1283    1284    1287    1288    1281    1283       0       0    1282
    1283    1284    1285    1286    1287    1288    1290    1291    1292    1284
    1285    1286    1287    1289    1290    1284    1285    1287    1288    1289
    1290    1291    1292    1293    1294    1295    1286    1287    1288    1289
    1290    1293    1294    1287    1289    1288    1289    1290    1291    1292
    1293    1294    1296    1290    1291    1292    1293    1295    1296    1290
    1291    1293    1294    1295    1296    1292    1293    1294    1295    1296
    1293    1295    1294    1295    1296    1296    1296       0    1298    1299
    1300    1301    1302    1303    1304    1305    1306    1307    1308    1309
    1310    1311    1312    1313    1314    1299    1300    1301    1302    1303
    1304    1305    1306    1307    1308    1315    1300    1301    1302    1303
    1304    1305    1306    1307    1309    1310    1311    1315    1316    1301
    1302    1303    1304    1305    1306    1310    1312    1313    1314    1316
    1317    1318    1319    1302    1303    1307    1308    1309    1315    1307
    1308    1304    1307    1308    1309    1310    1311    1315    1305    1307
    1309    1310    1311    1312    1316    1306    1310    1311    1312    1313
    1314    1316    1317    1318    1320    1321    1322    1310    1312    1313
    1314    1317    1319    1320    1308    1309    1315    1315    1315    1311
    1312    1316    1317    1318    1316    1313    1316    1317    1318    1319
    1320    1321    1322    1323    1324    1325    1314    1317    1318    1319
    1320    1323    1324    1317    1319       0       0    1318    1319    1320
    1321    1322    1323    1324    1326    1327    1328    1320    1321    1322
    1323    1325    1326    1320    1321    1323    1324    1325    1326    1327
    1328    1329    1330    1331    1322    1323    1324    1325    1326    1329
    1330    1323    1325    1324    1325    1326    1327    1328    1329    1330
    1332    1326    1327    1328    1329    1331    1332    1326    1327    1329
    1330    1331    1332    1328    1329    1330    1331    1332    1329    1331
    1330    1331    1332    1332    1332       0    1334    1335    1336    1337
    1338    1339    1340    1341    1342    1343    1344    1345    1346    1347
    1348    1349    1350    1335    1336    1337    1338    1339    1340    1341
    1342    1343    1344    1351    1336    1337    1338    1339    1340    1341
    1342    1343    1345    1346    1347    1351    1352    1337    1338    1339
    1340    1341    1342    1346    1348    1349    1350    1352    1353    1354
    1355    1338    1339    1343    1344    1345    1351    1343    1344    1340
    1343    1344    1345    1346    1347    1351    1341    1343    1345    1346
    1347    1348    1352    1342    1346    1347    1348    1349    1350    1352
    1353    1354    1356    1357    1358    1346    1348    1349    1350    1353
    1355    1356    1344    1345    1351    1351    1351    1347    1348    1352
    1353    1354    1352    1349    1352    1353    1354    1355    1356    1357
    1358    1359    1360    1361    1350    1353    1354    1355    1356    1359
    1360    1353    1355       0       0    1354    1355    1356    1357    1358
    1359    1360    1362    1363    1364    1356    1357    1358    1359    1361
    1362    1356    1357    1359    1360    1361    1362    1363    1364    1365
    1366    1367    1358    1359    1360    1361    1362    1365    1366    1359
    1361    1360    1361    1362    1363    1364    1365    1366    1368    1362
    1363    1364    1365    1367    1368    1362    1363    1365    1366    1367
    1368    1364    1365    1366    1367    1368    1365    1367    1366    1367
    1368    1368    1368       0    1370    1371    1372    1373    1374    1375
    1376    1377    1378    1379    1380    1381    1382    1383    1384    1385
    1386    1371    1372    1373    1374    1375    1376    1377    1378    1379
    1380    1387    1372    1373    1374    1375    1376    1377    1378    1379
    1381    1382    1383    1387    1388    1373    1374    1375    1376    1377
    1378    1382    1384    1385    1386    1388    1389    1390    1391    1374
    1375    1379    1380    1381    1387    1379    1380    1376    1379    1380
    1381    1382    1383    1387    1377    1379    1381    1382    1383    1384
    1388    1378    1382    1383    1384    1385    1386    1388    1389    1390
    1392    1393    1394    1382    1384    1385    1386    1389    1391    1392
    1380    1381    1387    1387    1387    1383    1384    1388    1389    1390
    1388    1385    1388    1389    1390    1391    1392    1393    1394    1395
    1396    1397    1386    1389    1390    1391    1392    1395    1396    1389
    1391       0       0    1390    1391    1392    1393    1394    1395    1396
    1398    1399    1400    1392    1393    1394    1395    1397    1398    1392
    1393    1395    1396    1397    1398    1399    1400    1401    1402    1403
    1394    1395    1396    1397    1398    1401    1402    1395    1397    1396
    1397    1398    1399    1400    1401    1402    1404    1398    1399    1400
    1401    1403    1404    1398    1399    1401    1402    1403    1404    1400
    1401    1402    1403    1404    1401    1403    1402    1403    1404    1404
    1404       0    1406    1407    1408    1409    1410    1411    1412    1413
    1414    1415    1416    1417    1418    1419    1420    1421    1422    1407
    1408    1409    1410    1411    1412    1413    1414    1415    1416    1423
    1408    1409    1410    1411    1412    1413    1414    1415    1417    1418
    1419    1423    1424    1409    1410    1411    1412    1413    1414    1418
    1420    1421    1422    1424    1425    1426    1427    1410    1411    1415
    1416    1417    1423    1415    1416    1412    1415    1416    1417    1418
    1419    1423    1413    1415    1417    1418    1419    1420    1424    1414
    1418    1419    1420    1421    1422    1424    1425    1426    1428    1429
    1430    1418    1420    1421    1422    1425    1427    1428    1416    1417
    1423    1423    1423    1419    1420    1424    1425    1426    1424    1421
    1424    1425    1426    1427    1428    1429    1430    1431    1432    1433
    1422    1425    1426    1427    1428    1431    1432    1425    1427       0
       0    1426    1427    1428    1429    1430    1431    1432    1434    1435
    1436    1428    1429    1430    1431    1433    1434    1428    1429    1431
    1432    1433    1434    1435    1436    1437    1438    1439    1430    1431
    1432    1433    1434    1437    1438    1431    1433    1432    1433    1434
    1435    1436    1437    1438    1440    1434    1435    1436    1437    1439
    1440    1434    1435    1437    1438    1439    1440    1436    1437    1438
    1439    1440    1437    1439    1438    1439    1440    1440    1440       0
    1442    1443    1444    1445    1446    1447    1448    1449    1450    1451
    1452    1453    1454    1455    1456    1457    1458    1443    1444    1445
    1446    1447    1448    1449    1450    1451    1452    1459    1444    1445
    1446    1447    1448    1449    1450    1451    1453    1454    1455    1459
    1460    1445    1446    1447    1448    1449    1450    1454    1456    1457
    1458    1460    1461    1462    1463    1446    1447    1451    1452    1453
    1459    1451    1452    1448    1451    1452    1453    1454    1455    1459
    1449    1451    1453    1454    1455    1456    1460    1450    1454    1455
    1456    1457    1458    1460    1461    1462    1464    1465    1466    1454
    1456    1457    1458    1461    1463    1464    1452    1453    1459    1459
    1459    1455    1456    1460    1461    1462    1460    1457    1460    1461
    1462    1463    1464    1465    1466    1467    1468    1469    1458    1461
    1462    1463    1464    1467    1468    1461    1463       0       0    1462
    1463    1464    1465    1466    1467    1468    1470    1471    1472    1464
    1465    1466    1467    1469    1470    1464    1465    1467    1468    1469
    1470    1471    1472    1473    1474    1475    1466    1467    1468    1469
    1470    1473    1474    1467    1469    1468    1469    1470    1471    1472
    1473    1474    1476    1470    1471    1472    1473    1475    1476    1470
    1471    1473    1474    1475    1476    1472    1473    1474    1475    1476
    1473    1475    1474    1475    1476    1476    1476       0    1478    1479
    1480    1481    1482    1483    1484    1485    1486    1487    1488    1489
    1490    1491    1492    1493    1494    1479    1480    1481    1482    1483
    1484    1485    1486    1487    1488    1495    1480    1481    1482    1483
    1484    1485    1486    1487    1489    1490    1491    1495    1496    1481
    1482    1483    1484    1485    1486    1490    1492    1493    1494    1496
    1497    1498    1499    1482    1483    1487    1488    1489    1495    1487
    1488    1484    1487    1488    1489    1490    1491    1495    1485    1487
    1489    1490    1491    1492    1496    1486    1490    1491    1492    1493
    1494    1496    1497    1498    1500    1501    1502    1490    1492    1493
    1494    1497    1499    1500    1488    1489    1495    1495    1495    1491
    1492    1496    1497    1498    1496    1493    1496    1497    1498    1499
    1500    1501    1502    1503    1504    1505    1494    1497    1498    1499
    1500    1503    1504    1497    1499       0       0    1498    1499    1500
    1501    1502    1503    1504    1506    1507    1508    1500    1501    1502
    1503    1505    1506    1500    1501    1503    1504    1505    1506    1507
    1508    1509    1510    1511    1502    1503    1504    1505    1506    1509
    1510    1503    1505    1504    1505    1506    1507    1508    1509    1510
    1512    1506    1507    1508    1509    1511    1512    1506    1507    1509
    1510    1511    1512    1508    1509    1510    1511    1512    1509    1511
    1510    1511    1512    1512    1512       0    1514    1515    1516    1517
    1518    1519    1520    1521    1522    1523    1524    1525    1526    1527
    1528    1529    1530    1515    1516    1517    1518    1519    1520    1521
    1522    1523    1524    1531    1516    1517    1518    1519    1520    1521
    1522    1523    1525    1526    1527    1531    1532    1517    1518    1519
    1520    1521    1522    1526    1528    1529    1530    1532    1533    1534
    1535    1518    1519    1523    1524    1525    1531    1523    1524    1520
    1523    1524    1525    1526    1527    1531    1521    1523    1525    1526
    1527    1528    1532    1522    1526    1527    1528    1529    1530    1532
    1533    1534    1536    1537    1538    1526    1528    1529    1530    1533
    1535    1536    1524    1525    1531    1531    1531    1527    1528    1532
    1533    1534    1532    1529    1532    1533    1534    1535    1536    1537
    1538    1539    1540    1541    1530    1533    1534    1535    1536    1539
    1540    1533    1535       0       0    1534    1535    1536    1537    1538
    1539    1540    1542    1543    1544    1536    1537    1538    1539    1541
    1542    1536    1537    1539    1540    1541    1542    1543    1544    1545
    1546    1547    1538    1539    1540    1541    1542    1545    1546    1539
    1541    1540    1541    1542    1543    1544    1545    1546    1548    1542
    1543    1544    1545    1547    1548    1542    1543    1545    1546    1547
    1548    1544    1545    1546    1547    1548    1545    1547    1546    1547
    1548    1548    1548       0    1550    1551    1552    1553    1554    1555
    1556    1557    1558    1559    1560    1561    1562    1563    1564    1565
    1566    1551    1552    1553    1554    1555    1556    1557    1558    1559
    1560    1567    1552    1553    1554    1555    1556    1557    1558    1559
    1561    1562    1563    1567    1568    1553    1554    1555    1556    1557
    1558    1562    1564    1565    1566    1568    1569    1570    1571    1554
    1555    1559    1560    1561    1567    1559    1560    1556    1559    1560
    1561    1562    1563    1567    1557    1559    1561    1562    1563    1564
    1568    1558    1562    1563    1564    1565    1566    1568    1569    1570
    1572    1573    1574    1562    1564    1565    1566    1569    1571    1572
    1560    1561    1567    1567    1567    1563    1564    1568    1569    1570
    1568    1565    1568    1569    1570    1571    1572    1573    1574    1575
    1576    1577    1566    1569    1570    1571    1572    1575    1576    1569
    1571       0       0    1570    1571    1572    1573    1574    1575    1576
    1578    1579    1580    1572    1573    1574    1575    1577    1578    1572
    1573    1575    1576    1577    1578    1579    1580    1581    1582    1583
    1574    1575    1576    1577    1578    1581    1582    1575    1577    1576
    1577    1578    1579    1580    1581    1582    1584    1578    1579    1580
    1581    1583    1584    1578    1579    1581    1582    1583    1584    1580
    1581    1582    1583    1584    1581    1583    1582    1583    1584    1584
    1584       0    1586    1587    1588    1589    1590    1591    1592    1593
    1594    1595    1596    1597    1598    1599    1600    1601    1602    1587
    1588    1589    1590    1591    1592    1593    1594    1595    1596    1603
    1588    1589    1590    1591    1592    1593    1594    1595    1597    1598
    1599    1603    1604    1589    1590    1591    1592    1593    1594    1598
    1600    1601    1602    1604    1605    1606    1607    1590    1591    1595
    1596    1597    1603    1595    1596    1592    1595    1596    1597    1598
    1599    1603    1593    1595    1597    1598    1599    1600    1604    1594
    1598    1599    1600    1601    1602    1604    1605    1606    1608    1609
    1610    1598    1600    1601    1602    1605    1607    1608    1596    1597
    1603    1603    1603    1599    1600    1604    1605    1606    1604    1601
    1604    1605    1606    1607    1608    1609    1610    1611    1612    1613
    1602    1605    1606    1607    1608    1611    1612    1605    1607       0
       0    1606    1607    1608    1609    1610    1611    1612    1614    1615
    1616    1608    1609    1610    1611    1613    1614    1608    1609    1611
    1612    1613    1614    1615    1616    1617    1618    1619    1610    1611
    1612    1613    1614    1617    1618    1611    1613    1612    1613    1614
    1615    1616    1617    1618    1620    1614    1615    1616    1617    1619
    1620    1614    1615    1617    1618    1619    1620    1616    1617    1618
    1619    1620    1617    1619    1618    1619    1620    1620    1620       0
    1622    1623    1624    1625    1626    1627    1628    1629    1630    1631
    1632    1633    1634    1635    1636    1637    1638    1623    1624    1625
    1626    1627    1628    1629    1630    1631    1632    1639    1624    1625
    1626    1627    1628    1629    1630    1631    1633    1634    1635    1639
    1640    1625    1626    1627    1628    1629    1630    1634    1636    1637
    1638    1640    1641    1642    1643    1626    1627    1631    1632    1633
    1639    1631    1632    1628    1631    1632    1633    1634    1635    1639
    1629    1631    1633    1634    1635    1636    1640    1630    1634    1635
    1636    1637    1638    1640    1641    1642    1644    1645    1646    1634
    1636    1637    1638    1641    1643    1644    1632    1633    1639    1639
    1639    1635    1636    1640    1641    1642    1640    1637    1640    1641
    1642    1643    1644    1645    1646    1647    1648    1649    1638    1641
    1642    1643    1644    1647    1648    1641    1643       0       0    1642
    1643    1644    1645    1646    1647    1648    1650    1651    1652    1644
    1645    1646    1647    1649    1650    1644    1645    1647    1648    1649
    1650    1651    1652    1653    1654    1655    1646    1647    1648    1649
    1650    1653    1654    1647    1649    1648    1649    1650    1651    1652
    1653    1654    1656    1650    1651    1652    1653    1655    1656    1650
    1651    1653    1654    1655    1656    1652    1653    1654    1655    1656
    1653    1655    1654    1655    1656    1656    1656       0    1658    1659
    1660    1661    1662    1663    1664    1665    1666    1667    1668    1669
    1670    1671    1672    1673    1674    1659    1660    1661    1662    1663
    1664    1665    1666    1667    1668    1675    1660    1661    1662    1663
    1664    1665    1666    1667    1669    1670    1671    1675    1676    1661
    1662    1663    1664    1665    1666    1670    1672    1673    1674    1676
    1677    1678    1679    1662    1663    1667    1668    1669    1675    1667
    1668    1664    1667    1668    1669    1670    1671    1675    1665    1667
    1669    1670    1671    1672    1676    1666    1670    1671    1672    1673
    1674    1676    1677    1678    1680    1681    1682    1670    1672    1673
    1674    1677    1679    1680    1668    1669    1675    1675    1675    1671
    1672    1676    1677    1678    1676    1673    1676    1677    1678    1679
    1680    1681    1682    1683    1684    1685    1674    1677    1678    1679
    1680    1683    1684    1677    1679       0       0    1678    1679    1680
    1681    1682    1683    1684    1686    1687    1688    1680    1681    1682
    1683    1685    1686    1680    1681    1683    1684    1685    1686    1687
    1688    1689    1690    1691    1682    1683    1684    1685    1686    1689
    1690    1683    1685    1684    1685    1686    1687    1688    1689    1690
    1692    1686    1687    1688    1689    1691    1692    1686    1687    1689
    1690    1691    1692    1688    1689    1690    1691    1692    1689    1691
    1690    1691    1692    1692    1692       0    1694    1695    1696    1697
    1698    1699    1700    1701    1702    1703    1704    1705    1706    1707
    1708    1709    1710    1695    1696    1697    1698    1699    1700    1701
    1702    1703    1704    1711    1696    1697    1698    1699    1700    1701
    1702    1703    1705    1706    1707    1711    1712    1697    1698    1699
    1700    1701    1702    1706    1708    1709    1710    1712    1713    1714
    1715    1698    1699    1703    1704    1705    1711    1703    1704    1700
    1703    1704    1705    1706    1707    1711    1701    1703    1705    1706
    1707    1708    1712    1702    1706    1707    1708    1709    1710    1712
    1713    1714    1716    1717    1718    1706    1708    1709    1710    1713
    1715    1716    1704    1705    1711    1711    1711    1707    1708    1712
    1713    1714    1712    1709    1712    1713    1714    1715    1716    1717
    1718    1719    1720    1721    1710    1713    1714    1715    1716    1719
    1720    1713    1715       0       0    1714    1715    1716    1717    1718
    1719    1720    1722    1723    1724    1716    1717    1718    1719    1721
    1722    1716    1717    1719    1720    1721    1722    1723    1724    1725
    1726    1727    1718    1719    1720    1721    1722    1725    1726    1719
    1721    1720    1721    1722    1723    1724    1725    1726    1728    1722
    1723    1724    1725    1727    1728    1722    1723    1725    1726    1727
    1728    1724    1725    1726    1727    1728    1725    1727    1726    1727
    1728    1728    1728       0    1730    1731    1732    1733    1734    1735
    1736    1737    1738    1739    1740    1741    1742    1743    1744    1745
    1746    1731    1732    1733    1734    1735    1736    1737    1738    1739
    1740    1747    1732    1733    1734    1735    1736    1737    1738    1739
    1741    1742    1743    1747    1748    1733    1734    1735    1736    1737
    1738    1742    1744    1745    1746    1748    1749    1750    1751    1734
    1735    1739    1740    1741    1747    1739    1740    1736    1739    1740
    1741    1742    1743    1747    1737    1739    1741    1742    1743    1744
    1748    1738    1742    1743    1744    1745    1746    1748    1749    1750
    1752    1753    1754    1742    1744    1745    1746    1749    1751    1752
    1740    1741    1747    1747    1747    1743    1744    1748    1749    1750
    1748    1745    1748    1749    1750    1751    1752    1753    1754    1755
    1756    1757    1746    1749    1750    1751    1752    1755    1756    1749
    1751       0       0    1750    1751    1752    1753    1754    1755    1756
    1758    1759    1760    1752    1753    1754    1755    1757    1758    1752
    1753    1755    1756    1757    1758    1759    1760    1761    1762    1763
    1754    1755    1756    1757    1758    1761    1762    1755    1757    1756
    1757    1758    1759    1760    1761    1762    1764    1758    1759    1760
    1761    1763    1764    1758    1759    1761    1762    1763    1764    1760
    1761    1762    1763    1764    1761    1763    1762    1763    1764    1764
    1764       0    1766    1767    1768    1769    1770    1771    1772    1773
    1774    1775    1776    1777    1778    1779    1780    1781    1782    1767
    1768    1769    1770    1771    1772    1773    1774    1775    1776    1783
    1768    1769    1770    1771    1772    1773    1774    1775    1777    1778
    1779    1783    1784    1769    1770    1771    1772    1773    1774    1778
    1780    1781    1782    1784    1785    1786    1787    1770    1771    1775
    1776    1777    1783    1775    1776    1772    1775    1776    1777    1778
    1779    1783    1773    1775    1777    1778    1779    1780    1784    1774
    1778    1779    1780    1781    1782    1784    1785    1786    1788    1789
    1790    1778    1780    1781    1782    1785    1787    1788    1776    1777
    1783    1783    1783    1779    1780    1784    1785    1786    1784    1781
    1784    1785    1786    1787    1788    1789    1790    1791    1792    1793
    1782    1785    1786    1787    1788    1791    1792    1785    1787       0
       0    1786    1787    1788    1789    1790    1791    1792    1794    1795
    1796    1788    1789    1790    1791    1793    1794    1788    1789    1791
    1792    1793    1794    1795    1796    1797    1798    1799    1790    1791
    1792    1793    1794    1797    1798    1791    1793    1792    1793    1794
    1795    1796    1797    1798    1800    1794    1795    1796    1797    1799
    1800    1794    1795    1797    1798    1799    1800    1796    1797    1798
    1799    1800    1797    1799    1798    1799    1800    1800    1800       0
    1802    1803    1804    1805    1806    1807    1808    1809    1810    1811
    1812    1813    1814    1815    1816    1817    1818    1803    1804    1805
    1806    1807    1808    1809    1810    1811    1812    1819    1804    1805
    1806    1807    1808    1809    1810    1811    1813    1814    1815    1819
    1820    1805    1806    1807    1808    1809    1810    1814    1816    1817
    1818    1820    1821    1822    1823    1806    1807    1811    1812    1813
    1819    1811    1812    1808    1811    1812    1813    1814    1815    1819
    1809    1811    1813    1814    1815    1816    1820    1810    1814    1815
    1816    1817    1818    1820    1821    1822    1824    1825    1826    1814
    1816    1817    1818    1821    1823    1824    1812    1813    1819    1819
    1819    1815    1816    1820    1821    1822    1820    1817    1820    1821
    1822    1823    1824    1825    1826    1827    1828    1829    1818    1821
    1822    1823    1824    1827    1828    1821    1823       0       0    1822
    1823    1824    1825    1826    1827    1828    1830    1831    1832    1824
    1825    1826    1827    1829    1830    1824    1825    1827    1828    1829
    1830    1831    1832    1833    1834    1835    1826    1827    1828    1829
    1830    1833    1834    1827    1829    1828    1829    1830    1831    1832
    1833    1834    1836    1830    1831    1832    1833    1835    1836    1830
    1831    1833    1834    1835    1836    1832    1833    1834    1835    1836
    1833    1835    1834    1835    1836    1836    1836       0    1838    1839
    1840    1841    1842    1843    1844    1845    1846    1847    1848    1849
    1850    1851    1852    1853    1854    1839    1840    1841    1842    1843
    1844    1845    1846    1847    1848    1855    1840    1841    1842    1843
    1844    1845    1846    1847    1849    1850    1851    1855    1856    1841
    1842    1843    1844    1845    1846    1850    1852    1853    1854    1856
    1857    1858    1859    1842    1843    1847    1848    1849    1855    1847
    1848    1844    1847    1848    1849    1850    1851    1855    1845    1847
    1849    1850    1851    1852    1856    1846    1850    1851    1852    1853
    1854    1856    1857    1858    1860    1861    1862    1850    1852    1853
    1854    1857    1859    1860    1848    1849    1855    1855    1855    1851
    1852    1856    1857    1858    1856    1853    1856    1857    1858    1859
    1860    1861    1862    1863    1864    1865    1854    1857    1858    1859
    1860    1863    1864    1857    1859       0       0    1858    1859    1860
    1861    1862    1863    1864    1866    1867    1868    1860    1861    1862
    1863    1865    1866    1860    1861    1863    1864    1865    1866    1867
    1868    1869    1870    1871    1862    1863    1864    1865    1866    1869
    1870    1863    1865    1864    1865    1866    1867    1868    1869    1870
    1872    1866    1867    1868    1869    1871    1872    1866    1867    1869
    1870    1871    1872    1868    1869    1870    1871    1872    1869    1871
    1870    1871    1872    1872    1872       0    1874    1875    1876    1877
    1878    1879    1880    1881    1882    1883    1884    1885    1886    1887
    1888    1889    1890    1875    1876    1877    1878    1879    1880    1881
    1882    1883    1884    1891    1876    1877    1878    1879    1880    1881
    1882    1883    1885    1886    1887    1891    1892    1877    1878    1879
    1880    1881    1882    1886    1888    1889    1890    1892    1893    1894
    1895    1878    1879    1883    1884    1885    1891    1883    1884    1880
    1883    1884    1885    1886    1887    1891    1881    1883    1885    1886
    1887    1888    1892    1882    1886    1887    1888    1889    1890    1892
    1893    1894    1896    1897    1898    1886    1888    1889    1890    1893
    1895    1896    1884    1885    1891    1891    1891    1887    1888    1892
    1893    1894    1892    1889    1892    1893    1894    1895    1896    1897
    1898    1899    1900    1901    1890    1893    1894    1895    1896    1899
    1900    1893    1895       0       0    1894    1895    1896    1897    1898
    1899    1900    1902    1903    1904    1896    1897    1898    1899    1901
    1902    1896    1897    1899    1900    1901    1902    1903    1904    1905
    1906    1907    1898    1899    1900    1901    1902    1905    1906    1899
    1901    1900    1901    1902    1903    1904    1905    1906    1908    1902
    1903    1904    1905    1907    1908    1902    1903    1905    1906    1907
    1908    1904    1905    1906    1907    1908    1905    1907    1906    1907
    1908    1908    1908       0    1910    1911    1912    1913    1914    1915
    1916    1917    1918    1919    1920    1921    1922    1923    1924    1925
    1926    1911    1912    1913    1914    1915    1916    1917    1918    1919
    1920    1927    1912    1913    1914    1915    1916    1917    1918    1919
    1921    1922    1923    1927    1928    1913    1914    1915    1916    1917
    1918    1922    1924    1925    1926    1928    1929    1930    1931    1914
    1915    1919    1920    1921    1927    1919    1920    1916    1919    1920
    1921    1922    1923    1927    1917    1919    1921    1922    1923    1924
    1928    1918    1922    1923    1924    1925    1926    1928    1929    1930
    1932    1933    1934    1922    1924    1925    1926    1929    1931    1932
    1920    1921    1927    1927    1927    1923    1924    1928    1929    1930
    1928    1925    1928    1929    1930    1931    1932    1933    1934    1935
    1936    1937    1926    1929    1930    1931    1932    1935    1936    1929
    1931       0       0    1930    1931    1932    1933    1934    1935    1936
    1938    1939    1940    1932    1933    1934    1935    1937    1938    1932
    1933    1935    1936    1937    1938    1939    1940    1941    1942    1943
    1934    1935    1936    1937    1938    1941    1942    1935    1937    1936
    1937    1938    1939    1940    1941    1942    1944    1938    1939    1940
    1941    1943    1944    1938    1939    1941    1942    1943    1944    1940
    1941    1942    1943    1944    1941    1943    1942    1943    1944    1944
    1944       0    1946    1947    1948    1949    1950    1951    1952    1953
    1954    1955    1956    1957    1958    1959    1960    1961    1962    1947
    1948    1949    1950    1951    1952    1953    1954    1955    1956    1963
    1948    1949    1950    1951    1952    1953    1954    1955    1957    1958
    1959    1963    1964    1949    1950    1951    1952    1953    1954    1958
    1960    1961    1962    1964    1965    1966    1967    1950    1951    1955
    1956    1957    1963    1955    1956    1952    1955    1956    1957    1958
    1959    1963    1953    1955    1957    1958    1959    1960    1964    1954
    1958    1959    1960    1961    1962    1964    1965    1966    1968    1969
    1970    1958    1960    1961    1962    1965    1967    1968    1956    1957
    1963    1963    1963    1959    1960    1964    1965    1966    1964    1961
    1964    1965    1966    1967    1968    1969    1970    1971    1972    1973
    1962    1965    1966    1967    1968    1971    1972    1965    1967       0
       0    1966    1967    1968    1969    1970    1971    1972    1974    1975
    1976    1968    1969    1970    1971    1973    1974    1968    1969    1971
    1972    1973    1974    1975    1976    1977    1978    1979    1970    1971
    1972    1973    1974    1977    1978    1971    1973    1972    1973    1974
    1975    1976    1977    1978    1980    1974    1975    1976    1977    1979
    1980    1974    1975    1977    1978    1979    1980    1976    1977    1978
    1979    1980    1977    1979    1978    1979    1980    1980    1980       0
    1982    1983    1984    1985    1986    1987    1988    1989    1990    1991
    1992    1993    1994    1995    1996    1997    1998    1983    1984    1985
    1986    1987    1988    1989    1990    1991    1992    1999    1984    1985
    1986    1987    1988    1989    1990    1991    1993    1994    1995    1999
    2000    1985    1986    1987    1988    1989    1990    1994    1996    1997
    1998    2000    2001    2002    2003    1986    1987    1991    1992    1993
    1999    1991    1992    1988    1991    1992    1993    1994    1995    1999
    1989    1991    1993    1994    1995    1996    2000    1990    1994    1995
    1996    1997    1998    2000    2001    2002    2004    2005    2006    1994
    1996    1997    1998    2001    2003    2004    1992    1993    1999    1999
    1999    1995    1996    2000    2001    2002    2000    1997    2000    2001
    2002    2003    2004    2005    2006    2007    2008    2009    1998    2001
    2002    2003    2004    2007    2008    2001    2003       0       0    2002
    2003    2004    2005    2006    2007    2008    2010    2011    2012    2004
    2005    2006    2007    2009    2010    2004    2005    2007    2008    2009
    2010    2011    2012    2013    2014    2015    2006    2007    2008    2009
    2010    2013    2014    2007    2009    2008    2009    2010    2011    2012
    2013    2014    2016    2010    2011    2012    2013    2015    2016    2010
    2011    2013    2014    2015    2016    2012    2013    2014    2015    2016
    2013    2015    2014    2015    2016    2016    2016       0    2018    2019
    2020    2021    2022    2023    2024    2025    2026    2027    2028    2029
    2030    2031    2032    2033    2034    2019    2020    2021    2022    2023
    2024    2025    2026    2027    2028    2035    2020    2021    2022    2023
    2024    2025    2026    2027    2029    2030    2031    2035    2036    2021
    2022    2023    2024    2025    2026    2030    2032    2033    2034    2036
    2037    2038    2039    2022    2023    2027    2028    2029    2035    2027
    2028    2024    2027    2028    2029    2030    2031    2035    2025    2027
    2029    2030    2031    2032    2036    2026    2030    2031    2032    2033
    2034    2036    2037    2038    2040    2041    2042    2030    2032    2033
    2034    2037    2039    2040    2028    2029    2035    2035    2035    2031
    2032    2036    2037    2038    2036    2033    2036    2037    2038    2039
    2040    2041    2042    2043    2044    2045    2034    2037    2038    2039
    2040    2043    2044    2037    2039       0       0    2038    2039    2040
    2041    2042    2043    2044    2046    2047    2048    2040    2041    2042
    2043    2045    2046    2040    2041    2043    2044    2045    2046    2047
    2048    2049    2050    2051    2042    2043    2044    2045    2046    2049
    2050    2043    2045    2044    2045    2046    2047    2048    2049    2050
    2052    2046    2047    2048    2049    2051    2052    2046    2047    2049
    2050    2051    2052    2048    2049    2050    2051    2052    2049    2051
    2050    2051    2052    2052    2052       0    2054    2055    2056    2057
    2058    2059    2060    2061    2062    2063    2064    2065    2066    2067
    2068    2069    2070    2055    2056    2057    2058    2059    2060    2061
    2062    2063    2064    2071    2056    2057    2058    2059    2060    2061
    2062    2063    2065    2066    2067    2071    2072    2057    2058    2059
    2060    2061    2062    2066    2068    2069    2070    2072    2073    2074
    2075    2058    2059    2063    2064    2065    2071    2063    2064    2060
    2063    2064    2065    2066    2067    2071    2061    2063    2065    2066
    2067    2068    2072    2062    2066    2067    2068    2069    2070    2072
    2073    2074    2076    2077    2078    2066    2068    2069    2070    2073
    2075    2076    2064    2065    2071    2071    2071    2067    2068    2072
    2073    2074    2072    2069    2072    2073    2074    2075    2076    2077
    2078    2079    2080    2081    2070    2073    2074    2075    2076    2079
    2080    2073    2075       0       0    2074    2075    2076    2077    2078
    2079    2080    2082    2083    2084    2076    2077    2078    2079    2081
    2082    2076    2077    2079    2080    2081    2082    2083    2084    2085
    2086    2087    2078    2079    2080    2081    2082    2085    2086    2079
    2081    2080    2081    2082    2083    2084    2085    2086    2088    2082
    2083    2084    2085    2087    2088    2082    2083    2085    2086    2087
    2088    2084    2085    2086    2087    2088    2085    2087    2086    2087
    2088    2088    2088       0    2090    2091    2092    2093    2094    2095
    2096    2097    2098    2099    2100    2101    2102    2103    2104    2105
    2106    2091    2092    2093    2094    2095    2096    2097    2098    2099
    2100    2107    2092    2093    2094    2095    2096    2097    2098    2099
    2101    2102    2103    2107    2108    2093    2094    2095    2096    2097
    2098    2102    2104    2105    2106    2108    2109    2110    2111    2094
    2095    2099    2100    2101    2107    2099    2100    2096    2099    2100
    2101    2102    2103    2107    2097    2099    2101    2102    2103    2104
    2108    2098    2102    2103    2104    2105    2106    2108    2109    2110
    2112    2113    2114    2102    2104    2105    2106    2109    2111    2112
    2100    2101    2107    2107    2107    2103    2104    2108    2109    2110
    2108    2105    2108    2109    2110    2111    2112    2113    2114    2115
    2116    2117    2106    2109    2110    2111    2112    2115    2116    2109
    2111       0       0    2110    2111    2112    2113    2114    2115    2116
    2118    2119    2120    2112    2113    2114    2115    2117    2118    2112
    2113    2115    2116    2117    2118    2119    2120    2121    2122    2123
    2114    2115    2116    2117    2118    2121    2122    2115    2117    2116
    2117    2118    2119    2120    2121    2122    2124    2118    2119    2120
    2121    2123    2124    2118    2119    2121    2122    2123    2124    2120
    2121    2122    2123    2124    2121    2123    2122    2123    2124    2124
    2124       0    2126    2127    2128    2129    2130    2131    2132    2133
    2134    2135    2136    2137    2138    2139    2140    2141    2142    2127
    2128    2129    2130    2131    2132    2133    2134    2135    2136    2143
    2128    2129    2130    2131    2132    2133    2134    2135    2137    2138
    2139    2143    2144    2129    2130    2131    2132    2133    2134    2138
    2140    2141    2142    2144    2145    2146    2147    2130    2131    2135
    2136    2137    2143    2135    2136    2132    2135    2136    2137    2138
    2139    2143    2133    2135    2137    2138    2139    2140    2144    2134
    2138    2139    2140    2141    2142    2144    2145    2146    2148    2149
    2150    2138    2140    2141    2142    2145    2147    2148    2136    2137
    2143    2143    2143    2139    2140    2144    2145    2146    2144    2141
    2144    2145    2146    2147    2148    2149    2150    2151    2152    2153
    2142    2145    2146    2147    2148    2151    2152    2145    2147       0
       0    2146    2147    2148    2149    2150    2151    2152    2154    2155
    2156    2148    2149    2150    2151    2153    2154    2148    2149    2151
    2152    2153    2154    2155    2156    2157    2158    2159    2150    2151
    2152    2153    2154    2157    2158    2151    2153    2152    2153    2154
    2155    2156    2157    2158    2160    2154    2155    2156    2157    2159
    2160    2154    2155    2157    2158    2159    2160    2156    2157    2158
    2159    2160    2157    2159    2158    2159    2160    2160    2160       0
    2162    2163    2164    2165    2166    2167    2168    2169    2170    2171
    2172    2173    2174    2175    2176    2177    2178    2163    2164    2165
    2166    2167    2168    2169    2170    2171    2172    2179    2164    2165
    2166    2167    2168    2169    2170    2171    2173    2174    2175    2179
    2180    2165    2166    2167    2168    2169    2170    2174    2176    2177
    2178    2180    2181    2182    2183    2166    2167    2171    2172    2173
    2179    2171    2172    2168    2171    2172    2173    2174    2175    2179
    2169    2171    2173    2174    2175    2176    2180    2170    2174    2175
    2176    2177    2178    2180    2181    2182    2184    2185    2186    2174
    2176    2177    2178    2181    2183    2184    2172    2173    2179    2179
    2179    2175    2176    2180    2181    2182    2180    2177    2180    2181
    2182    2183    2184    2185    2186    2187    2188    2189    2178    2181
    2182    2183    2184    2187    2188    2181    2183       0       0    2182
    2183    2184    2185    2186    2187    2188    2190    2191    2192    2184
    2185    2186    2187    2189    2190    2184    2185    2187    2188    2189
    2190    2191    2192    2193    2194    2195    2186    2187    2188    2189
    2190    2193    2194    2187    2189    2188    2189    2190    2191    2192
    2193    2194    2196    2190    2191    2192    2193    2195    2196    2190
    2191    2193    2194    2195    2196    2192    2193    2194    2195    2196
    2193    2195    2194    2195    2196    2196    2196       0    2198    2199
    2200    2201    2202    2203    2204    2205    2206    2207    2208    2209
    2210    2211    2212    2213    2214    2199    2200    2201    2202    2203
    2204    2205    2206    2207    2208    2215    2200    2201    2202    2203
    2204    2205    2206    2207    2209    2210    2211    2215    2216    2201
    2202    2203    2204    2205    2206    2210    2212    2213    2214    2216
    2217    2218    2219    2202    2203    2207    2208    2209    2215    2207
    2208    2204    2207    2208    2209    2210    2211    2215    2205    2207
    2209    2210    2211    2212    2216    2206    2210    2211    2212    2213
    2214    2216    2217    2218    2220    2221    2222    2210    2212    2213
    2214    2217    2219    2220    2208    2209    2215    2215    2215    2211
    2212    2216    2217    2218    2216    2213    2216    2217    2218    2219
    2220    2221    2222    2223    2224    2225    2214    2217    2218    2219
    2220    2223    2224    2217    2219       0       0    2218    2219    2220
    2221    2222    2223    2224    2226    2227    2228    2220    2221    2222
    2223    2225    2226    2220    2221    2223    2224    2225    2226    2227
    2228    2229    2230    2231    2222    2223    2224    2225    2226    2229
    2230    2223    2225    2224    2225    2226    2227    2228    2229    2230
    2232    2226    2227    2228    2229    2231    2232    2226    2227    2229
    2230    2231    2232    2228    2229    2230    2231    2232    2229    2231
    2230    2231    2232    2232    2232       0    2234    2235    2236    2237
    2238    2239    2240    2241    2242    2243    2244    2245    2246    2247
    2248    2249    2250    2235    2236    2237    2238    2239    2240    2241
    2242    2243    2244    2251    2236    2237    2238    2239    2240    2241
    2242    2243    2245    2246    2247    2251    2252    2237    2238    2239
    2240    2241    2242    2246    2248    2249    2250    2252    2253    2254
    2255    2238    2239    2243    2244    2245    2251    2243    2244    2240
    2243    2244    2245    2246    2247    2251    2241    2243    2245    2246
    2247    2248    2252    2242    2246    2247    2248    2249    2250    2252
    2253    2254    2256    2257    2258    2246    2248    2249    2250    2253
    2255    2256    2244    2245    2251    2251    2251    2247    2248    2252
    2253    2254    2252    2249    2252    2253    2254    2255    2256    2257
    2258    2259    2260    2261    2250    2253    2254    2255    2256    2259
    2260    2253    2255       0       0    2254    2255    2256    2257    2258
    2259    2260    2262    2263    2264    2256    2257    2258    2259    2261
    2262    2256    2257    2259    2260    2261    2262    2263    2264    2265
    2266    2267    2258    2259    2260    2261    2262    2265    2266    2259
    2261    2260    2261    2262    2263    2264    2265    2266    2268    2262
    2263    2264    2265    2267    2268    2262    2263    2265    2266    2267
    2268    2264    2265    2266    2267    2268    2265    2267    2266    2267
    2268    2268    2268       0    2270    2271    2272    2273    2274    2275
    2276    2277    2278    2279    2280    2281    2282    2283    2284    2285
    2286    2271    2272    2273    2274    2275    2276    2277    2278    2279
    2280    2287    2272    2273    2274    2275    2276    2277    2278    2279
    2281    2282    2283    2287    2288    2273    2274    2275    2276    2277
    2278    2282    2284    2285    2286    2288    2289    2290    2291    2274
    2275    2279    2280    2281    2287    2279    2280    2276    2279    2280
    2281    2282    2283    2287    2277    2279    2281    2282    2283    2284
    2288    2278    2282    2283    2284    2285    2286    2288    2289    2290
    2292    2293    2294    2282    2284    2285    2286    2289    2291    2292
    2280    2281    2287    2287    2287    2283    2284    2288    2289    2290
    2288    2285    2288    2289    2290    2291    2292    2293    2294    2295
    2296    2297    2286    2289    2290    2291    2292    2295    2296    2289
    2291       0       0    2290    2291    2292    2293    2294    2295    2296
    2298    2299    2300    2292    2293    2294    2295    2297    2298    2292
    2293    2295    2296    2297    2298    2299    2300    2301    2302    2303
    2294    2295    2296    2297    2298    2301    2302    2295    2297    2296
    2297    2298    2299    2300    2301    2302    2304    2298    2299    2300
    2301    2303    2304    2298    2299    2301    2302    2303    2304    2300
    2301    2302    2303    2304    2301    2303    2302    2303    2304    2304
    2304       0    2306    2307    2308    2309    2310    2311    2312    2313
    2314    2315    2316    2317    2318    2319    2320    2321    2322    2307
    2308    2309    2310    2311    2312    2313    2314    2315    2316    2323
    2308    2309    2310    2311    2312    2313    2314    2315    2317    2318
    2319    2323    2324    2309    2310    2311    2312    2313    2314    2318
    2320    2321    2322    2324    2325    2326    2327    2310    2311    2315
    2316    2317    2323    2315    2316    2312    2315    2316    2317    2318
    2319    2323    2313    2315    2317    2318    2319    2320    2324    2314
    2318    2319    2320    2321    2322    2324    2325    2326    2328    2329
    2330    2318    2320    2321    2322    2325    2327    2328    2316    2317
    2323    2323    2323    2319    2320    2324    2325    2326    2324    2321
    2324    2325    2326    2327    2328    2329    2330    2331    2332    2333
    2322    2325    2326    2327    2328    2331    2332    2325    2327       0
       0    2326    2327    2328    2329    2330    2331    2332    2334    2335
    2336    2328    2329    2330    2331    2333    2334    2328    2329    2331
    2332    2333    2334    2335    2336    2337    2338    2339    2330    2331
    2332    2333    2334    2337    2338    2331    2333    2332    2333    2334
    2335    2336    2337    2338    2340    2334    2335    2336    2337    2339
    2340    2334    2335    2337    2338    2339    2340    2336    2337    2338
    2339    2340    2337    2339    2338    2339    2340    2340    2340       0
    2342    2343    2344    2345    2346    2347    2348    2349    2350    2351
    2352    2353    2354    2355    2356    2357    2358    2343    2344    2345
    2346    2347    2348    2349    2350    2351    2352    2359    2344    2345
    2346    2347    2348    2349    2350    2351    2353    2354    2355    2359
    2360    2345    2346    2347    2348    2349    2350    2354    2356    2357
    2358    2360    2361    2362    2363    2346    2347    2351    2352    2353
    2359    2351    2352    2348    2351    2352    2353    2354    2355    2359
    2349    2351    2353    2354    2355    2356    2360    2350    2354    2355
    2356    2357    2358    2360    2361    2362    2364    2365    2366    2354
    2356    2357    2358    2361    2363    2364    2352    2353    2359    2359
    2359    2355    2356    2360    2361    2362    2360    2357    2360    2361
    2362    2363    2364    2365    2366    2367    2368    2369    2358    2361
    2362    2363    2364    2367    2368    2361    2363       0       0    2362
    2363    2364    2365    2366    2367    2368    2370    2371    2372    2364
    2365    2366    2367    2369    2370    2364    2365    2367    2368    2369
    2370    2371    2372    2373    2374    2375    2366    2367    2368    2369
    2370    2373    2374    2367    2369    2368    2369    2370    2371    2372
    2373    2374    2376    2370    2371    2372    2373    2375    2376    2370
    2371    2373    2374    2375    2376    2372    2373    2374    2375    2376
    2373    2375    2374    2375    2376    2376    2376       0    2378    2379
    2380    2381    2382    2383    2384    2385    2386    2387    2388    2389
    2390    2391    2392    2393    2394    2379    2380    2381    2382    2383
    2384    2385    2386    2387    2388    2395    2380    2381    2382    2383
    2384    2385    2386    2387    2389    2390    2391    2395    2396    2381
    2382    2383    2384    2385    2386    2390    2392    2393    2394    2396
    2397    2398    2399    2382    2383    2387    2388    2389    2395    2387
    2388    2384    2387    2388    2389    2390    2391    2395    2385    2387
    2389    2390    2391    2392    2396    2386    2390    2391    2392    2393
    2394    2396    2397    2398    2400    2401    2402    2390    2392    2393
    2394    2397    2399    2400    2388    2389    2395    2395    2395    2391
    2392    2396    2397    2398    2396    2393    2396    2397    2398    2399
    2400    2401    2402    2403    2404    2405    2394    2397    2398    2399
    2400    2403    2404    2397    2399       0       0    2398    2399    2400
    2401    2402    2403    2404    2406    2407    2408    2400    2401    2402
    2403    2405    2406    2400    2401    2403    2404    2405    2406    2407
    2408    2409    2410    2411    2402    2403    2404    2405    2406    2409
    2410    2403    2405    2404    2405    2406    2407    2408    2409    2410
    2412    2406    2407    2408    2409    2411    2412    2406    2407    2409
    2410    2411    2412    2408    2409    2410    2411    2412    2409    2411
    2410    2411    2412    2412    2412       0    2414    2415    2416    2417
    2418    2419    2420    2421    2422    2423    2424    2425    2426    2427
    2428    2429    2430    2415    2416    2417    2418    2419    2420    2421
    2422    2423    2424    2431    2416    2417    2418    2419    2420    2421
    2422    2423    2425    2426    2427    2431    2432    2417    2418    2419
    2420    2421    2422    2426    2428    2429    2430    2432    2433    2434
    2435    2418    2419    2423    2424    2425    2431    2423    2424    2420
    2423    2424    2425    2426    2427    2431    2421    2423    2425    2426
    2427    2428    2432    2422    2426    2427    2428    2429    2430    2432
    2433    2434    2436    2437    2438    2426    2428    2429    2430    2433
    2435    2436    2424    2425    2431    2431    2431    2427    2428    2432
    2433    2434    2432    2429    2432    2433    2434    2435    2436    2437
    2438    2439    2440    2441    2430    2433    2434    2435    2436    2439
    2440    2433    2435       0       0    2434    2435    2436    2437    2438
    2439    2440    2442    2443    2444    2436    2437    2438    2439    2441
    2442    2436    2437    2439    2440    2441    2442    2443    2444    2445
    2446    2447    2438    2439    2440    2441    2442    2445    2446    2439
    2441    2440    2441    2442    2443    2444    2445    2446    2448    2442
    2443    2444    2445    2447    2448    2442    2443    2445    2446    2447
    2448    2444    2445    2446    2447    2448    2445    2447    2446    2447
    2448    2448    2448       0    2450    2451    2452    2453    2454    2455
    2456    2457    2458    2459    2460    2461    2462    2463    2464    2465
    2466    2451    2452    2453    2454    2455    2456    2457    2458    2459
    2460    2467    2452    2453    2454    2455    2456    2457    2458    2459
    2461    2462    2463    2467    2468    2453    2454    2455    2456    2457
    2458    2462    2464    2465    2466    2468    2469    2470    2471    2454
    2455    2459    2460    2461    2467    2459    2460    2456    2459    2460
    2461    2462    2463    2467    2457    2459    2461    2462    2463    2464
    2468    2458    2462    2463    2464    2465    2466    2468    2469    2470
    2472    2473    2474    2462    2464    2465    2466    2469    2471    2472
    2460    2461    2467    2467    2467    2463    2464    2468    2469    2470
    2468    2465    2468    2469    2470    2471    2472    2473    2474    2475
    2476    2477    2466    2469    2470    2471    2472    2475    2476    2469
    2471       0       0    2470    2471    2472    2473    2474    2475    2476
    2478    2479    2480    2472    2473    2474    2475    2477    2478    2472
    2473    2475    2476    2477    2478    2479    2480    2481    2482    2483
    2474    2475    2476    2477    2478    2481    2482    2475    2477    2476
    2477    2478    2479    2480    2481    2482    2484    2478    2479    2480
    2481    2483    2484    2478    2479    2481    2482    2483    2484    2480
    2481    2482    2483    2484    2481    2483    2482    2483    2484    2484
    2484       0    2486    2487    2488    2489    2490    2491    2492    2493
    2494    2495    2496    2497    2498    2499    2500    2501    2502    2487
    2488    2489    2490    2491    2492    2493    2494    2495    2496    2503
    2488    2489    2490    2491    2492    2493    2494    2495    2497    2498
    2499    2503    2504    2489    2490    2491    2492    2493    2494    2498
    2500    2501    2502    2504    2505    2506    2507    2490    2491    2495
    2496    2497    2503    2495    2496    2492    2495    2496    2497    2498
    2499    2503    2493    2495    2497    2498    2499    2500    2504    2494
    2498    2499    2500    2501    2502    2504    2505    2506    2508    2509
    2510    2498    2500    2501    2502    2505    2507    2508    2496    2497
    2503    2503    2503    2499    2500    2504    2505    2506    2504    2501
    2504    2505    2506    2507    2508    2509    2510    2511    2512    2513
    2502    2505    2506    2507    2508    2511    2512    2505    2507       0
       0    2506    2507    2508    2509    2510    2511    2512    2514    2515
    2516    2508    2509    2510    2511    2513    2514    2508    2509    2511
    2512    2513    2514    2515    2516    2517    2518    2519    2510    2511
    2512    2513    2514    2517    2518    2511    2513    2512    2513    2514
    2515    2516    2517    2518    2520    2514    2515    2516    2517    2519
    2520    2514    2515    2517    2518    2519    2520    2516    2517    2518
    2519    2520    2517    2519    2518    2519    2520    2520    2520       0
    2522    2523    2524    2525    2526    2527    2528    2529    2530    2531
    2532    2533    2534    2535    2536    2537    2538    2523    2524    2525
    2526    2527    2528    2529    2530    2531    2532    2539    2524    2525
    2526    2527    2528    2529    2530    2531    2533    2534    2535    2539
    2540    2525    2526    2527    2528    2529    2530    2534    2536    2537
    2538    2540    2541    2542    2543    2526    2527    2531    2532    2533
    2539    2531    2532    2528    2531    2532    2533    2534    2535    2539
    2529    2531    2533    2534    2535    2536    2540    2530    2534    2535
    2536    2537    2538    2540    2541    2542    2544    2545    2546    2534
    2536    2537    2538    2541    2543    2544    2532    2533    2539    2539
    2539    2535    2536    2540    2541    2542    2540    2537    2540    2541
    2542    2543    2544    2545    2546    2547    2548    2549    2538    2541
    2542    2543    2544    2547    2548    2541    2543       0       0    2542
    2543    2544    2545    2546    2547    2548    2550    2551    2552    2544
    2545    2546    2547    2549    2550    2544    2545    2547    2548    2549
    2550    2551    2552    2553    2554    2555    2546    2547    2548    2549
    2550    2553    2554    2547    2549    2548    2549    2550    2551    2552
    2553    2554    2556    2550    2551    2552    2553    2555    2556    2550
    2551    2553    2554    2555    2556    2552    2553    2554    2555    2556
    2553    2555    2554    2555    2556    2556    2556       0    2558    2559
    2560    2561    2562    2563    2564    2565    2566    2567    2568    2569
    2570    2571    2572    2573    2574    2559    2560    2561    2562    2563
    2564    2565    2566    2567    2568    2575    2560    2561    2562    2563
    2564    2565    2566    2567    2569    2570    2571    2575    2576    2561
    2562    2563    2564    2565    2566    2570    2572    2573    2574    2576
    2577    2578    2579    2562    2563    2567    2568    2569    2575    2567
    2568    2564    2567    2568    2569    2570    2571    2575    2565    2567
    2569    2570    2571    2572    2576    2566    2570    2571    2572    2573
    2574    2576    2577    2578    2580    2581    2582    2570    2572    2573
    2574    2577    2579    2580    2568    2569    2575    2575    2575    2571
    2572    2576    2577    2578    2576    2573    2576    2577    2578    2579
    2580    2581    2582    2583    2584    2585    2574    2577    2578    2579
    2580    2583    2584    2577    2579       0       0    2578    2579    2580
    2581    2582    2583    2584    2586    2587    2588    2580    2581    2582
    2583    2585    2586    2580    2581    2583    2584    2585    2586    2587
    2588    2589    2590    2591    2582    2583    2584    2585    2586    2589
    2590    2583    2585    2584    2585    2586    2587    2588    2589    2590
    2592    2586    2587    2588    2589    2591    2592    2586    2587    2589
    2590    2591    2592    2588    2589    2590    2591    2592    2589    2591
    2590    2591    2592    2592    2592       0    2594    2595    2596    2597
    2598    2599    2600    2601    2602    2603    2604    2605    2606    2607
    2608    2609    2610    2595    2596    2597    2598    2599    2600    2601
    2602    2603    2604    2611    2596    2597    2598    2599    2600    2601
    2602    2603    2605    2606    2607    2611    2612    2597    2598    2599
    2600    2601    2602    2606    2608    2609    2610    2612    2613    2614
    2615    2598    2599    2603    2604    2605    2611    2603    2604    2600
    2603    2604    2605    2606    2607    2611    2601    2603    2605    2606
    2607    2608    2612    2602    2606    2607    2608    2609    2610    2612
    2613    2614    2616    2617    2618    2606    2608    2609    2610    2613
    2615    2616    2604    2605    2611    2611    2611    2607    2608    2612
    2613    2614    2612    2609    2612    2613    2614    2615    2616    2617
    2618    2619    2620    2621    2610    2613    2614    2615    2616    2619
    2620    2613    2615       0       0    2614    2615    2616    2617    2618
    2619    2620    2622    2623    2624    2616    2617    2618    2619    2621
    2622    2616    2617    2619    2620    2621    2622    2623    2624    2625
    2626    2627    2618    2619    2620    2621    2622    2625    2626    2619
    2621    2620    2621    2622    2623    2624    2625    2626    2628    2622
    2623    2624    2625    2627    2628    2622    2623    2625    2626    2627
    2628    2624    2625    2626    2627    2628    2625    2627    2626    2627
    2628    2628    2628       0    2630    2631    2632    2633    2634    2635
    2636    2637    2638    2639    2640    2641    2642    2643    2644    2645
    2646    2631    2632    2633    2634    2635    2636    2637    2638    2639
    2640    2647    2632    2633    2634    2635    2636    2637    2638    2639
    2641    2642    2643    2647    2648    2633    2634    2635    2636    2637
    2638    2642    2644    2645    2646    2648    2649    2650    2651    2634
    2635    2639    2640    2641    2647    2639    2640    2636    2639    2640
    2641    2642    2643    2647    2637    2639    2641    2642    2643    2644
    2648    2638    2642    2643    2644    2645    2646    2648    2649    2650
    2652    2653    2654    2642    2644    2645    2646    2649    2651    2652
    2640    2641    2647    2647    2647    2643    2644    2648    2649    2650
    2648    2645    2648    2649    2650    2651    2652    2653    2654    2655
    2656    2657    2646    2649    2650    2651    2652    2655    2656    2649
    2651       0       0    2650    2651    2652    2653    2654    2655    2656
    2658    2659    2660    2652    2653    2654    2655    2657    2658    2652
    2653    2655    2656    2657    2658    2659    2660    2661    2662    2663
    2654    2655    2656    2657    2658    2661    2662    2655    2657    2656
    2657    2658    2659    2660    2661    2662    2664    2658    2659    2660
    2661    2663    2664    2658    2659    2661    2662    2663    2664    2660
    2661    2662    2663    2664    2661    2663    2662    2663    2664    2664
    2664       0    2666    2667    2668    2669    2670    2671    2672    2673
    2674    2675    2676    2677    2678    2679    2680    2681    2682    2667
    2668    2669    2670    2671    2672    2673    2674    2675    2676    2683
    2668    2669    2670    2671    2672    2673    2674    2675    2677    2678
    2679    2683    2684    2669    2670    2671    2672    2673    2674    2678
    2680    2681    2682    2684    2685    2686    2687    2670    2671    2675
    2676    2677    2683    2675    2676    2672    2675    2676    2677    2678
    2679    2683    2673    2675    2677    2678    2679    2680    2684    2674
    2678    2679    2680    2681    2682    2684    2685    2686    2688    2689
    2690    2678    2680    2681    2682    2685    2687    2688    2676    2677
    2683    2683    2683    2679    2680    2684    2685    2686    2684    2681
    2684    2685    2686    2687    2688    2689    2690    2691    2692    2693
    2682    2685    2686    2687    2688    2691    2692    2685    2687       0
       0    2686    2687    2688    2689    2690    2691    2692    2694    2695
    2696    2688    2689    2690    2691    2693    2694    2688    2689    2691
    2692    2693    2694    2695    2696    2697    2698    2699    2690    2691
    2692    2693    2694    2697    2698    2691    2693    2692    2693    2694
    2695    2696    2697    2698    2700    2694    2695    2696    2697    2699
    2700    2694    2695    2697    2698    2699    2700    2696    2697    2698
    2699    2700    2697    2699    2698    2699    2700    2700    2700       0
    2702    2703    2704    2705    2706    2707    2708    2709    2710    2711
    2712    2713    2714    2715    2716    2717    2718    2703    2704    2705
    2706    2707    2708    2709    2710    2711    2712    2719    2704    2705
    2706    2707    2708    2709    2710    2711    2713    2714    2715    2719
    2720    2705    2706    2707    2708    2709    2710    2714    2716    2717
    2718    2720    2721    2722    2723    2706    2707    2711    2712    2713
    2719    2711    2712    2708    2711    2712    2713    2714    2715    2719
    2709    2711    2713    2714    2715    2716    2720    2710    2714    2715
    2716    2717    2718    2720    2721    2722    2724    2725    2726    2714
    2716    2717    2718    2721    2723    2724    2712    2713    2719    2719
    2719    2715    2716    2720    2721    2722    2720    2717    2720    2721
    2722    2723    2724    2725    2726    2727    2728    2729    2718    2721
    2722    2723    2724    2727    2728    2721    2723       0       0    2722
    2723    2724    2725    2726    2727    2728    2730    2731    2732    2724
    2725    2726    2727    2729    2730    2724    2725    2727    2728    2729
    2730    2731    2732    2733    2734    2735    2726    2727    2728    2729
    2730    2733    2734    2727    2729    2728    2729    2730    2731    2732
    2733    2734    2736    2730    2731    2732    2733    2735    2736    2730
    2731    2733    2734    2735    2736    2732    2733    2734    2735    2736
    2733    2735    2734    2735    2736    2736    2736       0    2738    2739
    2740    2741    2742    2743    2744    2745    2746    2747    2748    2749
    2750    2751    2752    2753    2754    2739    2740    2741    2742    2743
    2744    2745    2746    2747    2748    2755    2740    2741    2742    2743
    2744    2745    2746    2747    2749    2750    2751    2755    2756    2741
    2742    2743    2744    2745    2746    2750    2752    2753    2754    2756
    2757    2758    2759    2742    2743    2747    2748    2749    2755    2747
    2748    2744    2747    2748    2749    2750    2751    2755    2745    2747
    2749    2750    2751    2752    2756    2746    2750    2751    2752    2753
    2754    2756    2757    2758    2760    2761    2762    2750    2752    2753
    2754    2757    2759    2760    2748    2749    2755    2755    2755    2751
    2752    2756    2757    2758    2756    2753    2756    2757    2758    2759
    2760    2761    2762    2763    2764    2765    2754    2757    2758    2759
    2760    2763    2764    2757    2759       0       0    2758    2759    2760
    2761    2762    2763    2764    2766    2767    2768    2760    2761    2762
    2763    2765    2766    2760    2761    2763    2764    2765    2766    2767
    2768    2769    2770    2771    2762    2763    2764    2765    2766    2769
    2770    2763    2765    2764    2765    2766    2767    2768    2769    2770
    2772    2766    2767    2768    2769    2771    2772    2766    2767    2769
    2770    2771    2772    2768    2769    2770    2771    2772    2769    2771
    2770    2771    2772    2772    2772       0    2774    2775    2776    2777
    2778    2779    2780    2781    2782    2783    2784    2785    2786    2787
    2788    2789    2790    2775    2776    2777    2778    2779    2780    2781
    2782    2783    2784    2791    2776    2777    2778    2779    2780    2781
    2782    2783    2785    2786    2787    2791    2792    2777    2778    2779
    2780    2781    2782    2786    2788    2789    2790    2792    2793    2794
    2795    2778    2779    2783    2784    2785    2791    2783    2784    2780
    2783    2784    2785    2786    2787    2791    2781    2783    2785    2786
    2787    2788    2792    2782    2786    2787    2788    2789    2790    2792
    2793    2794    2796    2797    2798    2786    2788    2789    2790    2793
    2795    2796    2784    2785    2791    2791    2791    2787    2788    2792
    2793    2794    2792    2789    2792    2793    2794    2795    2796    2797
    2798    2799    2800    2801    2790    2793    2794    2795    2796    2799
    2800    2793    2795       0       0    2794    2795    2796    2797    2798
    2799    2800    2802    2803    2804    2796    2797    2798    2799    2801
    2802    2796    2797    2799    2800    2801    2802    2803    2804    2805
    2806    2807    2798    2799    2800    2801    2802    2805    2806    2799
    2801    2800    2801    2802    2803    2804    2805    2806    2808    2802
    2803    2804    2805    2807    2808    2802    2803    2805    2806    2807
    2808    2804    2805    2806    2807    2808    2805    2807    2806    2807
    2808    2808    2808       0    2810    2811    2812    2813    2814    2815
    2816    2817    2818    2819    2820    2821    2822    2823    2824    2825
    2826    2811    2812    2813    2814    2815    2816    2817    2818    2819
    2820    2827    2812    2813    2814    2815    2816    2817    2818    2819
    2821    2822    2823    2827    2828    2813    2814    2815    2816    2817
    2818    2822    2824    2825    2826    2828    2829    2830    2831    2814
    2815    2819    2820    2821    2827    2819    2820    2816    2819    2820
    2821    2822    2823    2827    2817    2819    2821    2822    2823    2824
    2828    2818    2822    2823    2824    2825    2826    2828    2829    2830
    2832    2833    2834    2822    2824    2825    2826    2829    2831    2832
    2820    2821    2827    2827    2827    2823    2824    2828    2829    2830
    2828    2825    2828    2829    2830    2831    2832    2833    2834    2835
    2836    2837    2826    2829    2830    2831    2832    2835    2836    2829
    2831       0       0    2830    2831    2832    2833    2834    2835    2836
    2838    2839    2840    2832    2833    2834    2835    2837    2838    2832
    2833    2835    2836    2837    2838    2839    2840    2841    2842    2843
    2834    2835    2836    2837    2838    2841    2842    2835    2837    2836
    2837    2838    2839    2840    2841    2842    2844    2838    2839    2840
    2841    2843    2844    2838    2839    2841    2842    2843    2844    2840
    2841    2842    2843    2844    2841    2843    2842    2843    2844    2844
    2844       0    2846    2847    2848    2849    2850    2851    2852    2853
    2854    2855    2856    2857    2858    2859    2860    2861    2862    2847
    2848    2849    2850    2851    2852    2853    2854    2855    2856    2863
    2848    2849    2850    2851    2852    2853    2854    2855    2857    2858
    2859    2863    2864    2849    2850    2851    2852    2853    2854    2858
    2860    2861    2862    2864    2865    2866    2867    2850    2851    2855
    2856    2857    2863    2855    2856    2852    2855    2856    2857    2858
    2859    2863    2853    2855    2857    2858    2859    2860    2864    2854
    2858    2859    2860    2861    2862    2864    2865    2866    2868    2869
    2870    2858    2860    2861    2862    2865    2867    2868    2856    2857
    2863    2863    2863    2859    2860    2864    2865    2866    2864    2861
    2864    2865    2866    2867    2868    2869    2870    2871    2872    2873
    2862    2865    2866    2867    2868    2871    2872    2865    2867       0
       0    2866    2867    2868    2869    2870    2871    2872    2874    2875
    2876    2868    2869    2870    2871    2873    2874    2868    2869    2871
    2872    2873    2874    2875    2876    2877    2878    2879    2870    2871
    2872    2873    2874    2877    2878    2871    2873    2872    2873    2874
    2875    2876    2877    2878    2880    2874    2875    2876    2877    2879
    2880    2874    2875    2877    2878    2879    2880    2876    2877    2878
    2879    2880    2877    2879    2878    2879    2880    2880    2880       0
    2882    2883    2884    2885    2886    2887    2888    2889    2890    2891
    2892    2893    2894    2895    2896    2897    2898    2883    2884    2885
    2886    2887    2888    2889    2890    2891    2892    2899    2884    2885
    2886    2887    2888    2889    2890    2891    2893    2894    2895    2899
    2900    2885    2886    2887    2888    2889    2890    2894    2896    2897
    2898    2900    2901    2902    2903    2886    2887    2891    2892    2893
    2899    2891    2892    2888    2891    2892    2893    2894    2895    2899
    2889    2891    2893    2894    2895    2896    2900    2890    2894    2895
    2896    2897    2898    2900    2901    2902    2904    2905    2906    2894
    2896    2897    2898    2901    2903    2904    2892    2893    2899    2899
    2899    2895    2896    2900    2901    2902    2900    2897    2900    2901
    2902    2903    2904    2905    2906    2907    2908    2909    2898    2901
    2902    2903    2904    2907    2908    2901    2903       0       0    2902
    2903    2904    2905    2906    2907    2908    2910    2911    2912    2904
    2905    2906    2907    2909    2910    2904    2905    2907    2908    2909
    2910    2911    2912    2913    2914    2915    2906    2907    2908    2909
    2910    2913    2914    2907    2909    2908    2909    2910    2911    2912
    2913    2914    2916    2910    2911    2912    2913    2915    2916    2910
    2911    2913    2914    2915    2916    2912    2913    2914    2915    2916
    2913    2915    2914    2915    2916    2916    2916       0    2918    2919
    2920    2921    2922    2923    2924    2925    2926    2927    2928    2929
    2930    2931    2932    2933    2934    2919    2920    2921    2922    2923
    2924    2925    2926    2927    2928    2935    2920    2921    2922    2923
    2924    2925    2926    2927    2929    2930    2931    2935    2936    2921
    2922    2923    2924    2925    2926    2930    2932    2933    2934    2936
    2937    2938    2939    2922    2923    2927    2928    2929    2935    2927
    2928    2924    2927    2928    2929    2930    2931    2935    2925    2927
    2929    2930    2931    2932    2936    2926    2930    2931    2932    2933
    2934    2936    2937    2938    2940    2941    2942    2930    2932    2933
    2934    2937    2939    2940    2928    2929    2935    2935    2935    2931
    2932    2936    2937    2938    2936    2933    2936    2937    2938    2939
    2940    2941    2942    2943    2944    2945    2934    2937    2938    2939
    2940    2943    2944    2937    2939       0       0    2938    2939    2940
    2941    2942    2943    2944    2946    2947    2948    2940    2941    2942
    2943    2945    2946    2940    2941    2943    2944    2945    2946    2947
    2948    2949    2950    2951    2942    2943    2944    2945    2946    2949
    2950    2943    2945    2944    2945    2946    2947    2948    2949    2950
    2952    2946    2947    2948    2949    2951    2952    2946    2947    2949
    2950    2951    2952    2948    2949    2950    2951    2952    2949    2951
    2950    2951    2952    2952    2952       0    2954    2955    2956    2957
    2958    2959    2960    2961    2962    2963    2964    2965    2966    2967
    2968    2969    2970    2955    2956    2957    2958    2959    2960    2961
    2962    2963    2964    2971    2956    2957    2958    2959    2960    2961
    2962    2963    2965    2966    2967    2971    2972    2957    2958    2959
    2960    2961    2962    2966    2968    2969    2970    2972    2973    2974
    2975    2958    2959    2963    2964    2965    2971    2963    2964    2960
    2963    2964    2965    2966    2967    2971    2961    2963    2965    2966
    2967    2968    2972    2962    2966    2967    2968    2969    2970    2972
    2973    2974    2976    2977    2978    2966    2968    2969    2970    2973
    2975    2976    2964    2965    2971    2971    2971    2967    2968    2972
    2973    2974    2972    2969    2972    2973    2974    2975    2976    2977
    2978    2979    2980    2981    2970    2973    2974    2975    2976    2979
    2980    2973    2975       0       0    2974    2975    2976    2977    2978
    2979    2980    2982    2983    2984    2976    2977    2978    2979    2981
    2982    2976    2977    2979    2980    2981    2982    2983    2984    2985
    2986    2987    2978    2979    2980    2981    2982    2985    2986    2979
    2981    2980    2981    2982    2983    2984    2985    2986    2988    2982
    2983    2984    2985    2987    2988    2982    2983    2985    2986    2987
    2988    2984    2985    2986    2987    2988    2985    2987    2986    2987
    2988    2988    2988       0    2990    2991    2992    2993    2994    2995
    2996    2997    2998    2999    3000    3001    3002    3003    3004    3005
    3006    2991    2992    2993    2994    2995    2996    2997    2998    2999
    3000    3007    2992    2993    2994    2995    2996    2997    2998    2999
    3001    3002    3003    3007    3008    2993    2994    2995    2996    2997
    2998    3002    3004    3005    3006    3008    3009    3010    3011    2994
    2995    2999    3000    3001    3007    2999    3000    2996    2999    3000
    3001    3002    3003    3007    2997    2999    3001    3002    3003    3004
    3008    2998    3002    3003    3004    3005    3006    3008    3009    3010
    3012    3013    3014    3002    3004    3005    3006    3009    3011    3012
    3000    3001    3007    3007    3007    3003    3004    3008    3009    3010
    3008    3005    3008    3009    3010    3011    3012    3013    3014    3015
    3016    3017    3006    3009    3010    3011    3012    3015    3016    3009
    3011       0       0    3010    3011    3012    3013    3014    3015    3016
    3018    3019    3020    3012    3013    3014    3015    3017    3018    3012
    3013    3015    3016    3017    3018    3019    3020    3021    3022    3023
    3014    3015    3016    3017    3018    3021    3022    3015    3017    3016
    3017    3018    3019    3020    3021    3022    3024    3018    3019    3020
    3021    3023    3024    3018    3019    3021    3022    3023    3024    3020
    3021    3022    3023    3024    3021    3023    3022    3023    3024    3024
    3024       0    3026    3027    3028    3029    3030    3031    3032    3033
    3034    3035    3036    3037    3038    3039    3040    3041    3042    3027
    3028    3029    3030    3031    3032    3033    3034    3035    3036    3043
    3028    3029    3030    3031    3032    3033    3034    3035    3037    3038
    3039    3043    3044    3029    3030    3031    3032    3033    3034    3038
    3040    3041    3042    3044    3045    3046    3047    3030    3031    3035
    3036    3037    3043    3035    3036    3032    3035    3036    3037    3038
    3039    3043    3033    3035    3037    3038    3039    3040    3044    3034
    3038    3039    3040    3041    3042    3044    3045    3046    3048    3049
    3050    3038    3040    3041    3042    3045    3047    3048    3036    3037
    3043    3043    3043    3039    3040    3044    3045    3046    3044    3041
    3044    3045    3046    3047    3048    3049    3050    3051    3052    3053
    3042    3045    3046    3047    3048    3051    3052    3045    3047       0
       0    3046    3047    3048    3049    3050    3051    3052    3054    3055
    3056    3048    3049    3050    3051    3053    3054    3048    3049    3051
    3052    3053    3054    3055    3056    3057    3058    3059    3050    3051
    3052    3053    3054    3057    3058    3051    3053    3052    3053    3054
    3055    3056    3057    3058    3060    3054    3055    3056    3057    3059
    3060    3054    3055    3057    3058    3059    3060    3056    3057    3058
    3059    3060    3057    3059    3058    3059    3060    3060    3060       0
    3062    3063    3064    3065    3066    3067    3068    3069    3070    3071
    3072    3073    3074    3075    3076    3077    3078    3063    3064    3065
    3066    3067    3068    3069    3070    3071    3072    3079    3064    3065
    3066    3067    3068    3069    3070    3071    3073    3074    3075    3079
    3080    3065    3066    3067    3068    3069    3070    3074    3076    3077
    3078    3080    3081    3082    3083    3066    3067    3071    3072    3073
    3079    3071    3072    3068    3071    3072    3073    3074    3075    3079
    3069    3071    3073    3074    3075    3076    3080    3070    3074    3075
    3076    3077    3078    3080    3081    3082    3084    3085    3086    3074
    3076    3077    3078    3081    3083    3084    3072    3073    3079    3079
    3079    3075    3076    3080    3081    3082    3080    3077    3080    3081
    3082    3083    3084    3085    3086    3087    3088    3089    3078    3081
    3082    3083    3084    3087    3088    3081    3083       0       0    3082
    3083    3084    3085    3086    3087    3088    3090    3091    3092    3084
    3085    3086    3087    3089    3090    3084    3085    3087    3088    3089
    3090    3091    3092    3093    3094    3095    3086    3087    3088    3089
    3090    3093    3094    3087    3089    3088    3089    3090    3091    3092
    3093    3094    3096    3090    3091    3092    3093    3095    3096    3090
    3091    3093    3094    3095    3096    3092    3093    3094    3095    3096
    3093    3095    3094    3095    3096    3096    3096       0    3098    3099
    3100    3101    3102    3103    3104    3105    3106    3107    3108    3109
    3110    3111    3112    3113    3114    3099    3100    3101    3102    3103
    3104    3105    3106    3107    3108    3115    3100    3101    3102    3103
    3104    3105    3106    3107    3109    3110    3111    3115    3116    3101
    3102    3103    3104    3105    3106    3110    3112    3113    3114    3116
    3117    3118    3119    3102    3103    3107    3108    3109    3115    3107
    3108    3104    3107    3108    3109    3110    3111    3115    3105    3107
    3109    3110    3111    3112    3116    3106    3110    3111    3112    3113
    3114    3116    3117    3118    3120    3121    3122    3110    3112    3113
    3114    3117    3119    3120    3108    3109    3115    3115    3115    3111
    3112    3116    3117    3118    3116    3113    3116    3117    3118    3119
    3120    3121    3122    3123    3124    3125    3114    3117    3118    3119
    3120    3123    3124    3117    3119       0       0    3118    3119    3120
    3121    3122    3123    3124    3126    3127    3128    3120    3121    3122
    3123    3125    3126    3120    3121    3123    3124    3125    3126    3127
    3128    3129    3130    3131    3122    3123    3124    3125    3126    3129
    3130    3123    3125    3124    3125    3126    3127    3128    3129    3130
    3132    3126    3127    3128    3129    3131    3132    3126    3127    3129
    3130    3131    3132    3128    3129    3130    3131    3132    3129    3131
    3130    3131    3132    3132    3132       0    3134    3135    3136    3137
    3138    3139    3140    3141    3142    3143    3144    3145    3146    3147
    3148    3149    3150    3135    3136    3137    3138    3139    3140    3141
    3142    3143    3144    3151    3136    3137    3138    3139    3140    3141
    3142    3143    3145    3146    3147    3151    3152    3137    3138    3139
    3140    3141    3142    3146    3148    3149    3150    3152    3153    3154
    3155    3138    3139    3143    3144    3145    3151    3143    3144    3140
    3143    3144    3145    3146    3147    3151    3141    3143    3145    3146
    3147    3148    3152    3142    3146    3147    3148    3149    3150    3152
    3153    3154    3156    3157    3158    3146    3148    3149    3150    3153
    3155    3156    3144    3145    3151    3151    3151    3147    3148    3152
    3153    3154    3152    3149    3152    3153    3154    3155    3156    3157
    3158    3159    3160    3161    3150    3153    3154    3155    3156    3159
    3160    3153    3155       0       0    3154    3155    3156    3157    3158
    3159    3160    3162    3163    3164    3156    3157    3158    3159    3161
    3162    3156    3157    3159    3160    3161    3162    3163    3164    3165
    3166    3167    3158    3159    3160    3161    3162    3165    3166    3159
    3161    3160    3161    3162    3163    3164    3165    3166    3168    3162
    3163    3164    3165    3167    3168    3162    3163    3165    3166    3167
    3168    3164    3165    3166    3167    3168    3165    3167    3166    3167
    3168    3168    3168       0    3170    3171    3172    3173    3174    3175
    3176    3177    3178    3179    3180    3181    3182    3183    3184    3185
    3186    3171    3172    3173    3174    3175    3176    3177    3178    3179
    3180    3187    3172    3173    3174    3175    3176    3177    3178    3179
    3181    3182    3183    3187    3188    3173    3174    3175    3176    3177
    3178    3182    3184    3185    3186    3188    3189    3190    3191    3174
    3175    3179    3180    3181    3187    3179    3180    3176    3179    3180
    3181    3182    3183    3187    3177    3179    3181    3182    3183    3184
    3188    3178    3182    3183    3184    3185    3186    3188    3189    3190
    3192    3193    3194    3182    3184    3185    3186    3189    3191    3192
    3180    3181    3187    3187    3187    3183    3184    3188    3189    3190
    3188    3185    3188    3189    3190    3191    3192    3193    3194    3195
    3196    3197    3186    3189    3190    3191    3192    3195    3196    3189
    3191       0       0    3190    3191    3192    3193    3194    3195    3196
    3198    3199    3200    3192    3193    3194    3195    3197    3198    3192
    3193    3195    3196    3197    3198    3199    3200    3201    3202    3203
    3194    3195    3196    3197    3198    3201    3202    3195    3197    3196
    3197    3198    3199    3200    3201    3202    3204    3198    3199    3200
    3201    3203    3204    3198    3199    3201    3202    3203    3204    3200
    3201    3202    3203    3204    3201    3203    3202    3203    3204    3204
    3204       0    3206    3207    3208    3209    3210    3211    3212    3213
    3214    3215    3216    3217    3218    3219    3220    3221    3222    3207
    3208    3209    3210    3211    3212    3213    3214    3215    3216    3223
    3208    3209    3210    3211    3212    3213    3214    3215    3217    3218
    3219    3223    3224    3209    3210    3211    3212    3213    3214    3218
    3220    3221    3222    3224    3225    3226    3227    3210    3211    3215
    3216    3217    3223    3215    3216    3212    3215    3216    3217    3218
    3219    3223    3213    3215    3217    3218    3219    3220    3224    3214
    3218    3219    3220    3221    3222    3224    3225    3226    3228    3229
    3230    3218    3220    3221    3222    3225    3227    3228    3216    3217
    3223    3223    3223    3219    3220    3224    3225    3226    3224    3221
    3224    3225    3226    3227    3228    3229    3230    3231    3232    3233
    3222    3225    3226    3227    3228    3231    3232    3225    3227       0
       0    3226    3227    3228    3229    3230    3231    3232    3234    3235
    3236    3228    3229    3230    3231    3233    3234    3228    3229    3231
    3232    3233    3234    3235    3236    3237    3238    3239    3230    3231
    3232    3233    3234    3237    3238    3231    3233    3232    3233    3234
    3235    3236    3237    3238    3240    3234    3235    3236    3237    3239
    3240    3234    3235    3237    3238    3239    3240    3236    3237    3238
    3239    3240    3237    3239    3238    3239    3240    3240    3240       0
    3242    3243    3244    3245    3246    3247    3248    3249    3250    3251
    3252    3253    3254    3255    3256    3257    3258    3243    3244    3245
    3246    3247    3248    3249    3250    3251    3252    3259    3244    3245
    3246    3247    3248    3249    3250    3251    3253    3254    3255    3259
    3260    3245    3246    3247    3248    3249    3250    3254    3256    3257
    3258    3260    3261    3262    3263    3246    3247    3251    3252    3253
    3259    3251    3252    3248    3251    3252    3253    3254    3255    3259
    3249    3251    3253    3254    3255    3256    3260    3250    3254    3255
    3256    3257    3258    3260    3261    3262    3264    3265    3266    3254
    3256    3257    3258    3261    3263    3264    3252    3253    3259    3259
    3259    3255    3256    3260    3261    3262    3260    3257    3260    3261
    3262    3263    3264    3265    3266    3267    3268    3269    3258    3261
    3262    3263    3264    3267    3268    3261    3263       0       0    3262
    3263    3264    3265    3266    3267    3268    3270    3271    3272    3264
    3265    3266    3267    3269    3270    3264    3265    3267    3268    3269
    3270    3271    3272    3273    3274    3275    3266    3267    3268    3269
    3270    3273    3274    3267    3269    3268    3269    3270    3271    3272
    3273    3274    3276    3270    3271    3272    3273    3275    3276    3270
    3271    3273    3274    3275    3276    3272    3273    3274    3275    3276
    3273    3275    3274    3275    3276    3276    3276       0    3278    3279
    3280    3281    3282    3283    3284    3285    3286    3287    3288    3289
    3290    3291    3292    3293    3294    3279    3280    3281    3282    3283
    3284    3285    3286    3287    3288    3295    3280    3281    3282    3283
    3284    3285    3286    3287    3289    3290    3291    3295    3296    3281
    3282    3283    3284    3285    3286    3290    3292    3293    3294    3296
    3297    3298    3299    3282    3283    3287    3288    3289    3295    3287
    3288    3284    3287    3288    3289    3290    3291    3295    3285    3287
    3289    3290    3291    3292    3296    3286    3290    3291    3292    3293
    3294    3296    3297    3298    3300    3301    3302    3290    3292    3293
    3294    3297    3299    3300    3288    3289    3295    3295    3295    3291
    3292    3296    3297    3298    3296    3293    3296    3297    3298    3299
    3300    3301    3302    3303    3304    3305    3294    3297    3298    3299
    3300    3303    3304    3297    3299       0       0    3298    3299    3300
    3301    3302    3303    3304    3306    3307    3308    3300    3301    3302
    3303    3305    3306    3300    3301    3303    3304    3305    3306    3307
    3308    3309    3310    3311    3302    3303    3304    3305    3306    3309
    3310    3303    3305    3304    3305    3306    3307    3308    3309    3310
    3312    3306    3307    3308    3309    3311    3312    3306    3307    3309
    3310    3311    3312    3308    3309    3310    3311    3312    3309    3311
    3310    3311    3312    3312    3312       0    3314    3315    3316    3317
    3318    3319    3320    3321    3322    3323    3324    3325    3326    3327
    3328    3329    3330    3315    3316    3317    3318    3319    3320    3321
    3322    3323    3324    3331    3316    3317    3318    3319    3320    3321
    3322    3323    3325    3326    3327    3331    3332    3317    3318    3319
    3320    3321    3322    3326    3328    3329    3330    3332    3333    3334
    3335    3318    3319    3323    3324    3325    3331    3323    3324    3320
    3323    3324    3325    3326    3327    3331    3321    3323    3325    3326
    3327    3328    3332    3322    3326    3327    3328    3329    3330    3332
    3333    3334    3336    3337    3338    3326    3328    3329    3330    3333
    3335    3336    3324    3325    3331    3331    3331    3327    3328    3332
    3333    3334    3332    3329    3332    3333    3334    3335    3336    3337
    3338    3339    3340    3341    3330    3333    3334    3335    3336    3339
    3340    3333    3335       0       0    3334    3335    3336    3337    3338
    3339    3340    3342    3343    3344    3336    3337    3338    3339    3341
    3342    3336    3337    3339    3340    3341    3342    3343    3344    3345
    3346    3347    3338    3339    3340    3341    3342    3345    3346    3339
    3341    3340    3341    3342    3343    3344    3345    3346    3348    3342
    3343    3344    3345    3347    3348    3342    3343    3345    3346    3347
    3348    3344    3345    3346    3347    3348    3345    3347    3346    3347
    3348    3348    3348       0    3350    3351    3352    3353    3354    3355
    3356    3357    3358    3359    3360    3361    3362    3363    3364    3365
    3366    3351    3352    3353    3354    3355    3356    3357    3358    3359
    3360    3367    3352    3353    3354    3355    3356    3357    3358    3359
    3361    3362    3363    3367    3368    3353    3354    3355    3356    3357
    3358    3362    3364    3365    3366    3368    3369    3370    3371    3354
    3355    3359    3360    3361    3367    3359    3360    3356    3359    3360
    3361    3362    3363    3367    3357    3359    3361    3362    3363    3364
    3368    3358    3362    3363    3364    3365    3366    3368    3369    3370
    3372    3373    3374    3362    3364    3365    3366    3369    3371    3372
    3360    3361    3367    3367    3367    3363    3364    3368    3369    3370
    3368    3365    3368    3369    3370    3371    3372    3373    3374    3375
    3376    3377    3366    3369    3370    3371    3372    3375    3376    3369
    3371       0       0    3370    3371    3372    3373    3374    3375    3376
    3378    3379    3380    3372    3373    3374    3375    3377    3378    3372
    3373    3375    3376    3377    3378    3379    3380    3381    3382    3383
    3374    3375    3376    3377    3378    3381    3382    3375    3377    3376
    3377    3378    3379    3380    3381    3382    3384    3378    3379    3380
    3381    3383    3384    3378    3379    3381    3382    3383    3384    3380
    3381    3382    3383    3384    3381    3383    3382    3383    3384    3384
    3384       0    3386    3387    3388    3389    3390    3391    3392    3393
    3394    3395    3396    3397    3398    3399    3400    3401    3402    3387
    3388    3389    3390    3391    3392    3393    3394    3395    3396    3403
    3388    3389    3390    3391    3392    3393    3394    3395    3397    3398
    3399    3403    3404    3389    3390    3391    3392    3393    3394    3398
    3400    3401    3402    3404    3405    3406    3407    3390    3391    3395
    3396    3397    3403    3395    3396    3392    3395    3396    3397    3398
    3399    3403    3393    3395    3397    3398    3399    3400    3404    3394
    3398    3399    3400    3401    3402    3404    3405    3406    3408    3409
    3410    3398    3400    3401    3402    3405    3407    3408    3396    3397
    3403    3403    3403    3399    3400    3404    3405    3406    3404    3401
    3404    3405    3406    3407    3408    3409    3410    3411    3412    3413
    3402    3405    3406    3407    3408    3411    3412    3405    3407       0
       0    3406    3407    3408    3409    3410    3411    3412    3414    3415
    3416    3408    3409    3410    3411    3413    3414    3408    3409    3411
    3412    3413    3414    3415    3416    3417    3418    3419    3410    3411
    3412    3413    3414    3417    3418    3411    3413    3412    3413    3414
    3415    3416    3417    3418    3420    3414    3415    3416    3417    3419
    3420    3414    3415    3417    3418    3419    3420    3416    3417    3418
    3419    3420    3417    3419    3418    3419    3420    3420    3420       0
    3422    3423    3424    3425    3426    3427    3428    3429    3430    3431
    3432    3433    3434    3435    3436    3437    3438    3423    3424    3425
    3426    3427    3428    3429    3430    3431    3432    3439    3424    3425
    3426    3427    3428    3429    3430    3431    3433    3434    3435    3439
    3440    3425    3426    3427    3428    3429    3430    3434    3436    3437
    3438    3440    3441    3442    3443    3426    3427    3431    3432    3433
    3439    3431    3432    3428    3431    3432    3433    3434    3435    3439
    3429    3431    3433    3434    3435    3436    3440    3430    3434    3435
    3436    3437    3438    3440    3441    3442    3444    3445    3446    3434
    3436    3437    3438    3441    3443    3444    3432    3433    3439    3439
    3439    3435    3436    3440    3441    3442    3440    3437    3440    3441
    3442    3443    3444    3445    3446    3447    3448    3449    3438    3441
    3442    3443    3444    3447    3448    3441    3443       0       0    3442
    3443    3444    3445    3446    3447    3448    3450    3451    3452    3444
    3445    3446    3447    3449    3450    3444    3445    3447    3448    3449
    3450    3451    3452    3453    3454    3455    3446    3447    3448    3449
    3450    3453    3454    3447    3449    3448    3449    3450    3451    3452
    3453    3454    3456    3450    3451    3452    3453    3455    3456    3450
    3451    3453    3454    3455    3456    3452    3453    3454    3455    3456
    3453    3455    3454    3455    3456    3456    3456       0    3458    3459
    3460    3461    3462    3463    3464    3465    3466    3467    3468    3469
    3470    3471    3472    3473    3474    3459    3460    3461    3462    3463
    3464    3465    3466    3467    3468    3475    3460    3461    3462    3463
    3464    3465    3466    3467    3469    3470    3471    3475    3476    3461
    3462    3463    3464    3465    3466    3470    3472    3473    3474    3476
    3477    3478    3479    3462    3463    3467    3468    3469    3475    3467
    3468    3464    3467    3468    3469    3470    3471    3475    3465    3467
    3469    3470    3471    3472    3476    3466    3470    3471    3472    3473
    3474    3476    3477    3478    3480    3481    3482    3470    3472    3473
    3474    3477    3479    3480    3468    3469    3475    3475    3475    3471
    3472    3476    3477    3478    3476    3473    3476    3477    3478    3479
    3480    3481    3482    3483    3484    3485    3474    3477    3478    3479
    3480    3483    3484    3477    3479       0       0    3478    3479    3480
    3481    3482    3483    3484    3486    3487    3488    3480    3481    3482
    3483    3485    3486    3480    3481    3483    3484    3485    3486    3487
    3488    3489    3490    3491    3482    3483    3484    3485    3486    3489
    3490    3483    3485    3484    3485    3486    3487    3488    3489    3490
    3492    3486    3487    3488    3489    3491    3492    3486    3487    3489
    3490    3491    3492    3488    3489    3490    3491    3492    3489    3491
    3490    3491    3492    3492    3492       0    3494    3495    3496    3497
    3498    3499    3500    3501    3502    3503    3504    3505    3506    3507
    3508    3509    3510    3495    3496    3497    3498    3499    3500    3501
    3502    3503    3504    3511    3496    3497    3498    3499    3500    3501
    3502    3503    3505    3506    3507    3511    3512    3497    3498    3499
    3500    3501    3502    3506    3508    3509    3510    3512    3513    3514
    3515    3498    3499    3503    3504    3505    3511    3503    3504    3500
    3503    3504    3505    3506    3507    3511    3501    3503    3505    3506
    3507    3508    3512    3502    3506    3507    3508    3509    3510    3512
    3513    3514    3516    3517    3518    3506    3508    3509    3510    3513
    3515    3516    3504    3505    3511    3511    3511    3507    3508    3512
    3513    3514    3512    3509    3512    3513    3514    3515    3516    3517
    3518    3519    3520    3521    3510    3513    3514    3515    3516    3519
    3520    3513    3515       0       0    3514    3515    3516    3517    3518
    3519    3520    3522    3523    3524    3516    3517    3518    3519    3521
    3522    3516    3517    3519    3520    3521    3522    3523    3524    3525
    3526    3527    3518    3519    3520    3521    3522    3525    3526    3519
    3521    3520    3521    3522    3523    3524    3525    3526    3528    3522
    3523    3524    3525    3527    3528    3522    3523    3525    3526    3527
    3528    3524    3525    3526    3527    3528    3525    3527    3526    3527
    3528    3528    3528       0    3530    3531    3532    3533    3534    3535
    3536    3537    3538    3539    3540    3541    3542    3543    3544    3545
    3546    3531    3532    3533    3534    3535    3536    3537    3538    3539
    3540    3547    3532    3533    3534    3535    3536    3537    3538    3539
    3541    3542    3543    3547    3548    3533    3534    3535    3536    3537
    3538    3542    3544    3545    3546    3548    3549    3550    3551    3534
    3535    3539    3540    3541    3547    3539    3540    3536    3539    3540
    3541    3542    3543    3547    3537    3539    3541    3542    3543    3544
    3548    3538    3542    3543    3544    3545    3546    3548    3549    3550
    3552    3553    3554    3542    3544    3545    3546    3549    3551    3552
    3540    3541    3547    3547    3547    3543    3544    3548    3549    3550
    3548    3545    3548    3549    3550    3551    3552    3553    3554    3555
    3556    3557    3546    3549    3550    3551    3552    3555    3556    3549
    3551       0       0    3550    3551    3552    3553    3554    3555    3556
    3558    3559    3560    3552    3553    3554    3555    3557    3558    3552
    3553    3555    3556    3557    3558    3559    3560    3561    3562    3563
    3554    3555    3556    3557    3558    3561    3562    3555    3557    3556
    3557    3558    3559    3560    3561    3562    3564    3558    3559    3560
    3561    3563    3564    3558    3559    3561    3562    3563    3564    3560
    3561    3562    3563    3564    3561    3563    3562    3563    3564    3564
    3564       0    3566    3567    3568    3569    3570    3571    3572    3573
    3574    3575    3576    3577    3578    3579    3580    3581    3582    3567
    3568    3569    3570    3571    3572    3573    3574    3575    3576    3583
    3568    3569    3570    3571    3572    3573    3574    3575    3577    3578
    3579    3583    3584    3569    3570    3571    3572    3573    3574    3578
    3580    3581    3582    3584    3585    3586    3587    3570    3571    3575
    3576    3577    3583    3575    3576    3572    3575    3576    3577    3578
    3579    3583    3573    3575    3577    3578    3579    3580    3584    3574
    3578    3579    3580    3581    3582    3584    3585    3586    3588    3589
    3590    3578    3580    3581    3582    3585    3587    3588    3576    3577
    3583    3583    3583    3579    3580    3584    3585    3586    3584    3581
    3584    3585    3586    3587    3588    3589    3590    3591    3592    3593
    3582    3585    3586    3587    3588    3591    3592    3585    3587       0
       0    3586    3587    3588    3589    3590    3591    3592    3594    3595
    3596    3588    3589    3590    3591    3593    3594    3588    3589    3591
    3592    3593    3594    3595    3596    3597    3598    3599    3590    3591
    3592    3593    3594    3597    3598    3591    3593    3592    3593    3594
    3595    3596    3597    3598    3600    3594    3595    3596    3597    3599
    3600    3594    3595    3597    3598    3599    3600    3596    3597    3598
    3599    3600    3597    3599    3598    3599    3600    3600    3600       0
    3602    3603    3604    3605    3606    3607    3608    3609    3610    3611
    3612    3613    3614    3615    3616    3617    3618    3603    3604    3605
    3606    3607    3608    3609    3610    3611    3612    3619    3604    3605
    3606    3607    3608    3609    3610    3611    3613    3614    3615    3619
    3620    3605    3606    3607    3608    3609    3610    3614    3616    3617
    3618    3620    3621    3622    3623    3606    3607    3611    3612    3613
    3619    3611    3612    3608    3611    3612    3613    3614    3615    3619
    3609    3611    3613    3614    3615    3616    3620    3610    3614    3615
    3616    3617    3618    3620    3621    3622    3624    3625    3626    3614
    3616    3617    3618    3621    3623    3624    3612    3613    3619    3619
    3619    3615    3616    3620    3621    3622    3620    3617    3620    3621
    3622    3623    3624    3625    3626    3627    3628    3629    3618    3621
    3622    3623    3624    3627    3628    3621    3623       0       0    3622
    3623    3624    3625    3626    3627    3628    3630    3631    3632    3624
    3625    3626    3627    3629    3630    3624    3625    3627    3628    3629
    3630    3631    3632    3633    3634    3635    3626    3627    3628    3629
    3630    3633    3634    3627    3629    3628    3629    3630    3631    3632
    3633    3634    3636    3630    3631    3632    3633    3635    3636    3630
    3631    3633    3634    3635    3636    3632    3633    3634    3635    3636
    3633    3635    3634    3635    3636    3636    3636       0    3638    3639
    3640    3641    3642    3643    3644    3645    3646    3647    3648    3649
    3650    3651    3652    3653    3654    3639    3640    3641    3642    3643
    3644    3645    3646    3647    3648    3655    3640    3641    3642    3643
    3644    3645    3646    3647    3649    3650    3651    3655    3656    3641
    3642    3643    3644    3645    3646    3650    3652    3653    3654    3656
    3657    3658    3659    3642    3643    3647    3648    3649    3655    3647
    3648    3644    3647    3648    3649    3650    3651    3655    3645    3647
    3649    3650    3651    3652    3656    3646    3650    3651    3652    3653
    3654    3656    3657    3658    3660    3661    3662    3650    3652    3653
    3654    3657    3659    3660    3648    3649    3655    3655    3655    3651
    3652    3656    3657    3658    3656    3653    3656    3657    3658    3659
    3660    3661    3662    3663    3664    3665    3654    3657    3658    3659
    3660    3663    3664    3657    3659       0       0    3658    3659    3660
    3661    3662    3663    3664    3666    3667    3668    3660    3661    3662
    3663    3665    3666    3660    3661    3663    3664    3665    3666    3667
    3668    3669    3670    3671    3662    3663    3664    3665    3666    3669
    3670    3663    3665    3664    3665    3666    3667    3668    3669    3670
    3672    3666    3667    3668    3669    3671    3672    3666    3667    3669
    3670    3671    3672    3668    3669    3670    3671    3672    3669    3671
    3670    3671    3672    3672    3672       0    3674    3675    3676    3677
    3678    3679    3680    3681    3682    3683    3684    3685    3686    3687
    3688    3689    3690    3675    3676    3677    3678    3679    3680    3681
    3682    3683    3684    3691    3676    3677    3678    3679    3680    3681
    3682    3683    3685    3686    3687    3691    3692    3677    3678    3679
    3680    3681    3682    3686    3688    3689    3690    3692    3693    3694
    3695    3678    3679    3683    3684    3685    3691    3683    3684    3680
    3683    3684    3685    3686    3687    3691    3681    3683    3685    3686
    3687    3688    3692    3682    3686    3687    3688    3689    3690    3692
    3693    3694    3696    3697    3698    3686    3688    3689    3690    3693
    3695    3696    3684    3685    3691    3691    3691    3687    3688    3692
    3693    3694    3692    3689    3692    3693    3694    3695    3696    3697
    3698    3699    3700    3701    3690    3693    3694    3695    3696    3699
    3700    3693    3695       0       0    3694    3695    3696    3697    3698
    3699    3700    3702    3703    3704    3696    3697    3698    3699    3701
    3702    3696    3697    3699    3700    3701    3702    3703    3704    3705
    3706    3707    3698    3699    3700    3701    3702    3705    3706    3699
    3701    3700    3701    3702    3703    3704    3705    3706    3708    3702
    3703    3704    3705    3707    3708    3702    3703    3705    3706    3707
    3708    3704    3705    3706    3707    3708    3705    3707    3706    3707
    3708    3708    3708       0    3710    3711    3712    3713    3714    3715
    3716    3717    3718    3719    3720    3721    3722    3723    3724    3725
    3726    3711    3712    3713    3714    3715    3716    3717    3718    3719
    3720    3727    3712    3713    3714    3715    3716    3717    3718    3719
    3721    3722    3723    3727    3728    3713    3714    3715    3716    3717
    3718    3722    3724    3725    3726    3728    3729    3730    3731    3714
    3715    3719    3720    3721    3727    3719    3720    3716    3719    3720
    3721    3722    3723    3727    3717    3719    3721    3722    3723    3724
    3728    3718    3722    3723    3724    3725    3726    3728    3729    3730
    3732    3733    3734    3722    3724    3725    3726    3729    3731    3732
    3720    3721    3727    3727    3727    3723    3724    3728    3729    3730
    3728    3725    3728    3729    3730    3731    3732    3733    3734    3735
    3736    3737    3726    3729    3730    3731    3732    3735    3736    3729
    3731       0       0    3730    3731    3732    3733    3734    3735    3736
    3738    3739    3740    3732    3733    3734    3735    3737    3738    3732
    3733    3735    3736    3737    3738    3739    3740    3741    3742    3743
    3734    3735    3736    3737    3738    3741    3742    3735    3737    3736
    3737    3738    3739    3740    3741    3742    3744    3738    3739    3740
    3741    3743    3744    3738    3739    3741    3742    3743    3744    3740
    3741    3742    3743    3744    3741    3743    3742    3743    3744    3744
    3744       0    3746    3747    3748    3749    3750    3751    3752    3753
    3754    3755    3756    3757    3758    3759    3760    3761    3762    3747
    3748    3749    3750    3751    3752    3753    3754    3755    3756    3763
    3748    3749    3750    3751    3752    3753    3754    3755    3757    3758
    3759    3763    3764    3749    3750    3751    3752    3753    3754    3758
    3760    3761    3762    3764    3765    3766    3767    3750    3751    3755
    3756    3757    3763    3755    3756    3752    3755    3756    3757    3758
    3759    3763    3753    3755    3757    3758    3759    3760    3764    3754
    3758    3759    3760    3761    3762    3764    3765    3766    3768    3769
    3770    3758    3760    3761    3762    3765    3767    3768    3756    3757
    3763    3763    3763    3759    3760    3764    3765    3766    3764    3761
    3764    3765    3766    3767    3768    3769    3770    3771    3772    3773
    3762    3765    3766    3767    3768    3771    3772    3765    3767       0
       0    3766    3767    3768    3769    3770    3771    3772    3774    3775
    3776    3768    3769    3770    3771    3773    3774    3768    3769    3771
    3772    3773    3774    3775    3776    3777    3778    3779    3770    3771
    3772    3773    3774    3777    3778    3771    3773    3772    3773    3774
    3775    3776    3777    3778    3780    3774    3775    3776    3777    3779
    3780    3774    3775    3777    3778    3779    3780    3776    3777    3778
    3779    3780    3777    3779    3778    3779    3780    3780    3780       0
    3782    3783    3784    3785    3786    3787    3788    3789    3790    3791
    3792    3793    3794    3795    3796    3797    3798    3783    3784    3785
    3786    3787    3788    3789    3790    3791    3792    3799    3784    3785
    3786    3787    3788    3789    3790    3791    3793    3794    3795    3799
    3800    3785    3786    3787    3788    3789    3790    3794    3796    3797
    3798    3800    3801    3802    3803    3786    3787    3791    3792    3793
    3799    3791    3792    3788    3791    3792    3793    3794    3795    3799
    3789    3791    3793    3794    3795    3796    3800    3790    3794    3795
    3796    3797    3798    3800    3801    3802    3804    3805    3806    3794
    3796    3797    3798    3801    3803    3804    3792    3793    3799    3799
    3799    3795    3796    3800    3801    3802    3800    3797    3800    3801
    3802    3803    3804    3805    3806    3807    3808    3809    3798    3801
    3802    3803    3804    3807    3808    3801    3803       0       0    3802
    3803    3804    3805    3806    3807    3808    3810    3811    3812    3804
    3805    3806    3807    3809    3810    3804    3805    3807    3808    3809
    3810    3811    3812    3813    3814    3815    3806    3807    3808    3809
    3810    3813    3814    3807    3809    3808    3809    3810    3811    3812
    3813    3814    3816    3810    3811    3812    3813    3815    3816    3810
    3811    3813    3814    3815    3816    3812    3813    3814    3815    3816
    3813    3815    3814    3815    3816    3816    3816       0    3818    3819
    3820    3821    3822    3823    3824    3825    3826    3827    3828    3829
    3830    3831    3832    3833    3834    3819    3820    3821    3822    3823
    3824    3825    3826    3827    3828    3835    3820    3821    3822    3823
    3824    3825    3826    3827    3829    3830    3831    3835    3836    3821
    3822    3823    3824    3825    3826    3830    3832    3833    3834    3836
    3837    3838    3839    3822    3823    3827    3828    3829    3835    3827
    3828    3824    3827    3828    3829    3830    3831    3835    3825    3827
    3829    3830    3831    3832    3836    3826    3830    3831    3832    3833
    3834    3836    3837    3838    3840    3841    3842    3830    3832    3833
    3834    3837    3839    3840    3828    3829    3835    3835    3835    3831
    3832    3836    3837    3838    3836    3833    3836    3837    3838    3839
    3840    3841    3842    3843    3844    3845    3834    3837    3838    3839
    3840    3843    3844    3837    3839       0       0    3838    3839    3840
    3841    3842    3843    3844    3846    3847    3848    3840    3841    3842
    3843    3845    3846    3840    3841    3843    3844    3845    3846    3847
    3848    3849    3850    3851    3842    3843    3844    3845    3846    3849
    3850    3843    3845    3844    3845    3846    3847    3848    3849    3850
    3852    3846    3847    3848    3849    3851    3852    3846    3847    3849
    3850    3851    3852    3848    3849    3850    3851    3852    3849    3851
    3850    3851    3852    3852    3852       0    3854    3855    3856    3857
    3858    3859    3860    3861    3862    3863    3864    3865    3866    3867
    3868    3869    3870    3855    3856    3857    3858    3859    3860    3861
    3862    3863    3864    3871    3856    3857    3858    3859    3860    3861
    3862    3863    3865    3866    3867    3871    3872    3857    3858    3859
    3860    3861    3862    3866    3868    3869    3870    3872    3873    3874
    3875    3858    3859    3863    3864    3865    3871    3863    3864    3860
    3863    3864    3865    3866    3867    3871    3861    3863    3865    3866
    3867    3868    3872    3862    3866    3867    3868    3869    3870    3872
    3873    3874    3876    3877    3878    3866    3868    3869    3870    3873
    3875    3876    3864    3865    3871    3871    3871    3867    3868    3872
    3873    3874    3872    3869    3872    3873    3874    3875    3876    3877
    3878    3879    3880    3881    3870    3873    3874    3875    3876    3879
    3880    3873    3875       0       0    3874    3875    3876    3877    3878
    3879    3880    3882    3883    3884    3876    3877    3878    3879    3881
    3882    3876    3877    3879    3880    3881    3882    3883    3884    3885
    3886    3887    3878    3879    3880    3881    3882    3885    3886    3879
    3881    3880    3881    3882    3883    3884    3885    3886    3888    3882
    3883    3884    3885    3887    3888    3882    3883    3885    3886    3887
    3888    3884    3885    3886    3887    3888    3885    3887    3886    3887
    3888    3888    3888       0    3890    3891    3892    3893    3894    3895
    3896    3897    3898    3899    3900    3901    3902    3903    3904    3905
    3906    3891    3892    3893    3894    3895    3896    3897    3898    3899
    3900    3907    3892    3893    3894    3895    3896    3897    3898    3899
    3901    3902    3903    3907    3908    3893    3894    3895    3896    3897
    3898    3902    3904    3905    3906    3908    3909    3910    3911    3894
    3895    3899    3900    3901    3907    3899    3900    3896    3899    3900
    3901    3902    3903    3907    3897    3899    3901    3902    3903    3904
    3908    3898    3902    3903    3904    3905    3906    3908    3909    3910
    3912    3913    3914    3902    3904    3905    3906    3909    3911    3912
    3900    3901    3907    3907    3907    3903    3904    3908    3909    3910
    3908    3905    3908    3909    3910    3911    3912    3913    3914    3915
    3916    3917    3906    3909    3910    3911    3912    3915    3916    3909
    3911       0       0    3910    3911    3912    3913    3914    3915    3916
    3918    3919    3920    3912    3913    3914    3915    3917    3918    3912
    3913    3915    3916    3917    3918    3919    3920    3921    3922    3923
    3914    3915    3916    3917    3918    3921    3922    3915    3917    3916
    3917    3918    3919    3920    3921    3922    3924    3918    3919    3920
    3921    3923    3924    3918    3919    3921    3922    3923    3924    3920
    3921    3922    3923    3924    3921    3923    3922    3923    3924    3924
    3924       0    3926    3927    3928    3929    3930    3931    3932    3933
    3934    3935    3936    3937    3938    3939    3940    3941    3942    3927
    3928    3929    3930    3931    3932    3933    3934    3935    3936    3943
    3928    3929    3930    3931    3932    3933    3934    3935    3937    3938
    3939    3943    3944    3929    3930    3931    3932    3933    3934    3938
    3940    3941    3942    3944    3945    3946    3947    3930    3931    3935
    3936    3937    3943    3935    3936    3932    3935    3936    3937    3938
    3939    3943    3933    3935    3937    3938    3939    3940    3944    3934
    3938    3939    3940    3941    3942    3944    3945    3946    3948    3949
    3950    3938    3940    3941    3942    3945    3947    3948    3936    3937
    3943    3943    3943    3939    3940    3944    3945    3946    3944    3941
    3944    3945    3946    3947    3948    3949    3950    3951    3952    3953
    3942    3945    3946    3947    3948    3951    3952    3945    3947       0
       0    3946    3947    3948    3949    3950    3951    3952    3954    3955
    3956    3948    3949    3950    3951    3953    3954    3948    3949    3951
    3952    3953    3954    3955    3956    3957    3958    3959    3950    3951
    3952    3953    3954    3957    3958    3951    3953    3952    3953    3954
    3955    3956    3957    3958    3960    3954    3955    3956    3957    3959
    3960    3954    3955    3957    3958    3959    3960    3956    3957    3958
    3959    3960    3957    3959    3958    3959    3960    3960    3960       0
    3962    3963    3964    3965    3966    3967    3968    3969    3970    3971
    3972    3973    3974    3975    3976    3977    3978    3963    3964    3965
    3966    3967    3968    3969    3970    3971    3972    3979    3964    3965
    3966    3967    3968    3969    3970    3971    3973    3974    3975    3979
    3980    3965    3966    3967    3968    3969    3970    3974    3976    3977
    3978    3980    3981    3982    3983    3966    3967    3971    3972    3973
    3979    3971    3972    3968    3971    3972    3973    3974    3975    3979
    3969    3971    3973    3974    3975    3976    3980    3970    3974    3975
    3976    3977    3978    3980    3981    3982    3984    3985    3986    3974
    3976    3977    3978    3981    3983    3984    3972    3973    3979    3979
    3979    3975    3976    3980    3981    3982    3980    3977    3980    3981
    3982    3983    3984    3985    3986    3987    3988    3989    3978    3981
    3982    3983    3984    3987    3988    3981    3983       0       0    3982
    3983    3984    3985    3986    3987    3988    3990    3991    3992    3984
    3985    3986    3987    3989    3990    3984    3985    3987    3988    3989
    3990    3991    3992    3993    3994    3995    3986    3987    3988    3989
    3990    3993    3994    3987    3989    3988    3989    3990    3991    3992
    3993    3994    3996    3990    3991    3992    3993    3995    3996    3990
    3991    3993    3994    3995    3996    3992    3993    3994    3995    3996
    3993    3995    3994    3995    3996    3996    3996       0    3998    3999
    4000    4001    4002    4003    4004    4005    4006    4007    4008    4009
    4010    4011    4012    4013    4014    3999    4000    4001    4002    4003
    4004    4005    4006    4007    4008    4015    4000    4001    4002    4003
    4004    4005    4006    4007    4009    4010    4011    4015    4016    4001
    4002    4003    4004    4005    4006    4010    4012    4013    4014    4016
    4017    4018    4019    4002    4003    4007    4008    4009    4015    4007
    4008    4004    4007    4008    4009    4010    4011    4015    4005    4007
    4009    4010    4011    4012    4016    4006    4010    4011    4012    4013
    4014    4016    4017    4018    4020    4021    4022    4010    4012    4013
    4014    4017    4019    4020    4008    4009    4015    4015    4015    4011
    4012    4016    4017    4018    4016    4013    4016    4017    4018    4019
    4020    4021    4022    4023    4024    4025    4014    4017    4018    4019
    4020    4023    4024    4017    4019       0       0    4018    4019    4020
    4021    4022    4023    4024    4026    4027    4028    4020    4021    4022
    4023    4025    4026    4020    4021    4023    4024    4025    4026    4027
    4028    4029    4030    4031    4022    4023    4024    4025    4026    4029
    4030    4023    4025    4024    4025    4026    4027    4028    4029    4030
    4032    4026    4027    4028    4029    4031    4032    4026    4027    4029
    4030    4031    4032    4028    4029    4030    4031    4032    4029    4031
    4030    4031    4032    4032    4032       0    4034    4035    4036    4037
    4038    4039    4040    4041    4042    4043    4044    4045    4046    4047
    4048    4049    4050    4035    4036    4037    4038    4039    4040    4041
    4042    4043    4044    4051    4036    4037    4038    4039    4040    4041
    4042    4043    4045    4046    4047    4051    4052    4037    4038    4039
    4040    4041    4042    4046    4048    4049    4050    4052    4053    4054
    4055    4038    4039    4043    4044    4045    4051    4043    4044    4040
    4043    4044    4045    4046    4047    4051    4041    4043    4045    4046
    4047    4048    4052    4042    4046    4047    4048    4049    4050    4052
    4053    4054    4056    4057    4058    4046    4048    4049    4050    4053
    4055    4056    4044    4045    4051    4051    4051    4047    4048    4052
    4053    4054    4052    4049    4052    4053    4054    4055    4056    4057
    4058    4059    4060    4061    4050    4053    4054    4055    4056    4059
    4060    4053    4055       0       0    4054    4055    4056    4057    4058
    4059    4060    4062    4063    4064    4056    4057    4058    4059    4061
    4062    4056    4057    4059    4060    4061    4062    4063    4064    4065
    4066    4067    4058    4059    4060    4061    4062    4065    4066    4059
    4061    4060    4061    4062    4063    4064    4065    4066    4068    4062
    4063    4064    4065    4067    4068    4062    4063    4065    4066    4067
    4068    4064    4065    4066    4067    4068    4065    4067    4066    4067
    4068    4068    4068       0    4070    4071    4072    4073    4074    4075
    4076    4077    4078    4079    4080    4081    4082    4083    4084    4085
    4086    4071    4072    4073    4074    4075    4076    4077    4078    4079
    4080    4087    4072    4073    4074    4075    4076    4077    4078    4079
    4081    4082    4083    4087    4088    4073    4074    4075    4076    4077
    4078    4082    4084    4085    4086    4088    4089    4090    4091    4074
    4075    4079    4080    4081    4087    4079    4080    4076    4079    4080
    4081    4082    4083    4087    4077    4079    4081    4082    4083    4084
    4088    4078    4082    4083    4084    4085    4086    4088    4089    4090
    4092    4093    4094    4082    4084    4085    4086    4089    4091    4092
    4080    4081    4087    4087    4087    4083    4084    4088    4089    4090
    4088    4085    4088    4089    4090    4091    4092    4093    4094    4095
    4096    4097    4086    4089    4090    4091    4092    4095    4096    4089
    4091       0       0    4090    4091    4092    4093    4094    4095    4096
    4098    4099    4100    4092    4093    4094    4095    4097    4098    4092
    4093    4095    4096    4097    4098    4099    4100    4101    4102    4103
    4094    4095    4096    4097    4098    4101    4102    4095    4097    4096
    4097    4098    4099    4100    4101    4102    4104    4098    4099    4100
    4101    4103    4104    4098    4099    4101    4102    4103    4104    4100
    4101    4102    4103    4104    4101    4103    4102    4103    4104    4104
    4104       0    4106    4107    4108    4109    4110    4111    4112    4113
    4114    4115    4116    4117    4118    4119    4120    4121    4122    4107
    4108    4109    4110    4111    4112    4113    4114    4115    4116    4123
    4108    4109    4110    4111    4112    4113    4114    4115    4117    4118
    4119    4123    4124    4109    4110    4111    4112    4113    4114    4118
    4120    4121    4122    4124    4125    4126    4127    4110    4111    4115
    4116    4117    4123    4115    4116    4112    4115    4116    4117    4118
    4119    4123    4113    4115    4117    4118    4119    4120    4124    4114
    4118    4119    4120    4121    4122    4124    4125    4126    4128    4129
    4130    4118    4120    4121    4122    4125    4127    4128    4116    4117
    4123    4123    4123    4119    4120    4124    4125    4126    4124    4121
    4124    4125    4126    4127    4128    4129    4130    4131    4132    4133
    4122    4125    4126    4127    4128    4131    4132    4125    4127       0
       0    4126    4127    4128    4129    4130    4131    4132    4134    4135
    4136    4128    4129    4130    4131    4133    4134    4128    4129    4131
    4132    4133    4134    4135    4136    4137    4138    4139    4130    4131
    4132    4133    4134    4137    4138    4131    4133    4132    4133    4134
    4135    4136    4137    4138    4140    4134    4135    4136    4137    4139
    4140    4134    4135    4137    4138    4139    4140    4136    4137    4138
    4139    4140    4137    4139    4138    4139    4140    4140    4140       0
    4142    4143    4144    4145    4146    4147    4148    4149    4150    4151
    4152    4153    4154    4155    4156    4157    4158    4143    4144    4145
    4146    4147    4148    4149    4150    4151    4152    4159    4144    4145
    4146    4147    4148    4149    4150    4151    4153    4154    4155    4159
    4160    4145    4146    4147    4148    4149    4150    4154    4156    4157
    4158    4160    4161    4162    4163    4146    4147    4151    4152    4153
    4159    4151    4152    4148    4151    4152    4153    4154    4155    4159
    4149    4151    4153    4154    4155    4156    4160    4150    4154    4155
    4156    4157    4158    4160    4161    4162    4164    4165    4166    4154
    4156    4157    4158    4161    4163    4164    4152    4153    4159    4159
    4159    4155    4156    4160    4161    4162    4160    4157    4160    4161
    4162    4163    4164    4165    4166    4167    4168    4169    4158    4161
    4162    4163    4164    4167    4168    4161    4163       0       0    4162
    4163    4164    4165    4166    4167    4168    4170    4171    4172    4164
    4165    4166    4167    4169    4170    4164    4165    4167    4168    4169
    4170    4171    4172    4173    4174    4175    4166    4167    4168    4169
    4170    4173    4174    4167    4169    4168    4169    4170    4171    4172
    4173    4174    4176    4170    4171    4172    4173    4175    4176    4170
    4171    4173    4174    4175    4176    4172    4173    4174    4175    4176
    4173    4175    4174    4175    4176    4176    4176       0    4178    4179
    4180    4181    4182    4183    4184    4185    4186    4187    4188    4189
    4190    4191    4192    4193    4194    4179    4180    4181    4182    4183
    4184    4185    4186    4187    4188    4195    4180    4181    4182    4183
    4184    4185    4186    4187    4189    4190    4191    4195    4196    4181
    4182    4183    4184    4185    4186    4190    4192    4193    4194    4196
    4197    4198    4199    4182    4183    4187    4188    4189    4195    4187
    4188    4184    4187    4188    4189    4190    4191    4195    4185    4187
    4189    4190    4191    4192    4196    4186    4190    4191    4192    4193
    4194    4196    4197    4198    4200    4201    4202    4190    4192    4193
    4194    4197    4199    4200    4188    4189    4195    4195    4195    4191
    4192    4196    4197    4198    4196    4193    4196    4197    4198    4199
    4200    4201    4202    4203    4204    4205    4194    4197    4198    4199
    4200    4203    4204    4197    4199       0       0    4198    4199    4200
    4201    4202    4203    4204    4206    4207    4208    4200    4201    4202
    4203    4205    4206    4200    4201    4203    4204    4205    4206    4207
    4208    4209    4210    4211    4202    4203    4204    4205    4206    4209
    4210    4203    4205    4204    4205    4206    4207    4208    4209    4210
    4212    4206    4207    4208    4209    4211    4212    4206    4207    4209
    4210    4211    4212    4208    4209    4210    4211    4212    4209    4211
    4210    4211    4212    4212    4212       0    4214    4215    4216    4217
    4218    4219    4220    4221    4222    4223    4224    4225    4226    4227
    4228    4229    4230    4215    4216    4217    4218    4219    4220    4221
    4222    4223    4224    4231    4216    4217    4218    4219    4220    4221
    4222    4223    4225    4226    4227    4231    4232    4217    4218    4219
    4220    4221    4222    4226    4228    4229    4230    4232    4233    4234
    4235    4218    4219    4223    4224    4225    4231    4223    4224    4220
    4223    4224    4225    4226    4227    4231    4221    4223    4225    4226
    4227    4228    4232    4222    4226    4227    4228    4229    4230    4232
    4233    4234    4236    4237    4238    4226    4228    4229    4230    4233
    4235    4236    4224    4225    4231    4231    4231    4227    4228    4232
    4233    4234    4232    4229    4232    4233    4234    4235    4236    4237
    4238    4239    4240    4241    4230    4233    4234    4235    4236    4239
    4240    4233    4235       0       0    4234    4235    4236    4237    4238
    4239    4240    4242    4243    4244    4236    4237    4238    4239    4241
    4242    4236    4237    4239    4240    4241    4242    4243    4244    4245
    4246    4247    4238    4239    4240    4241    4242    4245    4246    4239
    4241    4240    4241    4242    4243    4244    4245    4246    4248    4242
    4243    4244    4245    4247    4248    4242    4243    4245    4246    4247
    4248    4244    4245    4246    4247    4248    4245    4247    4246    4247
    4248    4248    4248       0    4250    4251    4252    4253    4254    4255
    4256    4257    4258    4259    4260    4261    4262    4263    4264    4265
    4266    4251    4252    4253    4254    4255    4256    4257    4258    4259
    4260    4267    4252    4253    4254    4255    4256    4257    4258    4259
    4261    4262    4263    4267    4268    4253    4254    4255    4256    4257
    4258    4262    4264    4265    4266    4268    4269    4270    4271    4254
    4255    4259    4260    4261    4267    4259    4260    4256    4259    4260
    4261    4262    4263    4267    4257    4259    4261    4262    4263    4264
    4268    4258    4262    4263    4264    4265    4266    4268    4269    4270
    4272    4273    4274    4262    4264    4265    4266    4269    4271    4272
    4260    4261    4267    4267    4267    4263    4264    4268    4269    4270
    4268    4265    4268    4269    4270    4271    4272    4273    4274    4275
    4276    4277    4266    4269    4270    4271    4272    4275    4276    4269
    4271       0       0    4270    4271    4272    4273    4274    4275    4276
    4278    4279    4280    4272    4273    4274    4275    4277    4278    4272
    4273    4275    4276    4277    4278    4279    4280    4281    4282    4283
    4274    4275    4276    4277    4278    4281    4282    4275    4277    4276
    4277    4278    4279    4280    4281    4282    4284    4278    4279    4280
    4281    4283    4284    4278    4279    4281    4282    4283    4284    4280
    4281    4282    4283    4284    4281    4283    4282    4283    4284    4284
    4284       0    4286    4287    4288    4289    4290    4291    4292    4293
    4294    4295    4296    4297    4298    4299    4300    4301    4302    4287
    4288    4289    4290    4291    4292    4293    4294    4295    4296    4303
    4288    4289    4290    4291    4292    4293    4294    4295    4297    4298
    4299    4303    4304    4289    4290    4291    4292    4293    4294    4298
    4300    4301    4302    4304    4305    4306    4307    4290    4291    4295
    4296    4297    4303    4295    4296    4292    4295    4296    4297    4298
    4299    4303    4293    4295    4297    4298    4299    4300    4304    4294
    4298    4299    4300    4301    4302    4304    4305    4306    4308    4309
    4310    4298    4300    4301    4302    4305    4307    4308    4296    4297
    4303    4303    4303    4299    4300    4304    4305    4306    4304    4301
    4304    4305    4306    4307    4308    4309    4310    4311    4312    4313
    4302    4305    4306    4307    4308    4311    4312    4305    4307       0
       0    4306    4307    4308    4309    4310    4311    4312    4314    4315
    4316    4308    4309    4310    4311    4313    4314    4308    4309    4311
    4312    4313    4314    4315    4316    4317    4318    4319    4310    4311
    4312    4313    4314    4317    4318    4311    4313    4312    4313    4314
    4315    4316    4317    4318    4320    4314    4315    4316    4317    4319
    4320    4314    4315    4317    4318    4319    4320    4316    4317    4318
    4319    4320    4317    4319    4318    4319    4320    4320    4320       0
    4322    4323    4324    4325    4326    4327    4328    4329    4330    4331
    4332    4333    4334    4335    4336    4337    4338    4323    4324    4325
    4326    4327    4328    4329    4330    4331    4332    4339    4324    4325
    4326    4327    4328    4329    4330    4331    4333    4334    4335    4339
    4340    4325    4326    4327    4328    4329    4330    4334    4336    4337
    4338    4340    4341    4342    4343    4326    4327    4331    4332    4333
    4339    4331    4332    4328    4331    4332    4333    4334    4335    4339
    4329    4331    4333    4334    4335    4336    4340    4330    4334    4335
    4336    4337    4338    4340    4341    4342    4344    4345    4346    4334
    4336    4337    4338    4341    4343    4344    4332    4333    4339    4339
    4339    4335    4336    4340    4341    4342    4340    4337    4340    4341
    4342    4343    4344    4345    4346    4347    4348    4349    4338    4341
    4342    4343    4344    4347    4348    4341    4343       0       0    4342
    4343    4344    4345    4346    4347    4348    4350    4351    4352    4344
    4345    4346    4347    4349    4350    4344    4345    4347    4348    4349
    4350    4351    4352    4353    4354    4355    4346    4347    4348    4349
    4350    4353    4354    4347    4349    4348    4349    4350    4351    4352
    4353    4354    4356    4350    4351    4352    4353    4355    4356    4350
    4351    4353    4354    4355    4356    4352    4353    4354    4355    4356
    4353    4355    4354    4355    4356    4356    4356       0    4358    4359
    4360    4361    4362    4363    4364    4365    4366    4367    4368    4369
    4370    4371    4372    4373    4374    4359    4360    4361    4362    4363
    4364    4365    4366    4367    4368    4375    4360    4361    4362    4363
    4364    4365    4366    4367    4369    4370    4371    4375    4376    4361
    4362    4363    4364    4365    4366    4370    4372    4373    4374    4376
    4377    4378    4379    4362    4363    4367    4368    4369    4375    4367
    4368    4364    4367    4368    4369    4370    4371    4375    4365    4367
    4369    4370    4371    4372    4376    4366    4370    4371    4372    4373
    4374    4376    4377    4378    4380    4381    4382    4370    4372    4373
    4374    4377    4379    4380    4368    4369    4375    4375    4375    4371
    4372    4376    4377    4378    4376    4373    4376    4377    4378    4379
    4380    4381    4382    4383    4384    4385    4374    4377    4378    4379
    4380    4383    4384    4377    4379       0       0    4378    4379    4380
    4381    4382    4383    4384    4386    4387    4388    4380    4381    4382
    4383    4385    4386    4380    4381    4383    4384    4385    4386    4387
    4388    4389    4390    4391    4382    4383    4384    4385    4386    4389
    4390    4383    4385    4384    4385    4386    4387    4388    4389    4390
    4392    4386    4387    4388    4389    4391    4392    4386    4387    4389
    4390    4391    4392    4388    4389    4390    4391    4392    4389    4391
    4390    4391    4392    4392    4392       0    4394    4395    4396    4397
    4398    4399    4400    4401    4402    4403    4404    4405    4406    4407
    4408    4409    4410    4395    4396    4397    4398    4399    4400    4401
    4402    4403    4404    4411    4396    4397    4398    4399    4400    4401
    4402    4403    4405    4406    4407    4411    4412    4397    4398    4399
    4400    4401    4402    4406    4408    4409    4410    4412    4413    4414
    4415    4398    4399    4403    4404    4405    4411    4403    4404    4400
    4403    4404    4405    4406    4407    4411    4401    4403    4405    4406
    4407    4408    4412    4402    4406    4407    4408    4409    4410    4412
    4413    4414    4416    4417    4418    4406    4408    4409    4410    4413
    4415    4416    4404    4405    4411    4411    4411    4407    4408    4412
    4413    4414    4412    4409    4412    4413    4414    4415    4416    4417
    4418    4419    4420    4421    4410    4413    4414    4415    4416    4419
    4420    4413    4415       0       0    4414    4415    4416    4417    4418
    4419    4420    4422    4423    4424    4416    4417    4418    4419    4421
    4422    4416    4417    4419    4420    4421    4422    4423    4424    4425
    4426    4427    4418    4419    4420    4421    4422    4425    4426    4419
    4421    4420    4421    4422    4423    4424    4425    4426    4428    4422
    4423    4424    4425    4427    4428    4422    4423    4425    4426    4427
    4428    4424    4425    4426    4427    4428    4425    4427    4426    4427
    4428    4428    4428       0    4430    4431    4432    4433    4434    4435
    4436    4437    4438    4439    4440    4441    4442    4443    4444    4445
    4446    4431    4432    4433    4434    4435    4436    4437    4438    4439
    4440    4447    4432    4433    4434    4435    4436    4437    4438    4439
    4441    4442    4443    4447    4448    4433    4434    4435    4436    4437
    4438    4442    4444    4445    4446    4448    4449    4450    4451    4434
    4435    4439    4440    4441    4447    4439    4440    4436    4439    4440
    4441    4442    4443    4447    4437    4439    4441    4442    4443    4444
    4448    4438    4442    4443    4444    4445    4446    4448    4449    4450
    4452    4453    4454    4442    4444    4445    4446    4449    4451    4452
    4440    4441    4447    4447    4447    4443    4444    4448    4449    4450
    4448    4445    4448    4449    4450    4451    4452    4453    4454    4455
    4456    4457    4446    4449    4450    4451    4452    4455    4456    4449
    4451       0       0    4450    4451    4452    4453    4454    4455    4456
    4458    4459    4460    4452    4453    4454    4455    4457    4458    4452
    4453    4455    4456    4457    4458    4459    4460    4461    4462    4463
    4454    4455    4456    4457    4458    4461    4462    4455    4457    4456
    4457    4458    4459    4460    4461    4462    4464    4458    4459    4460
    4461    4463    4464    4458    4459    4461    4462    4463    4464    4460
    4461    4462    4463    4464    4461    4463    4462    4463    4464    4464
    4464       0    4466    4467    4468    4469    4470    4471    4472    4473
    4474    4475    4476    4477    4478    4479    4480    4481    4482    4467
    4468    4469    4470    4471    4472    4473    4474    4475    4476    4483
    4468    4469    4470    4471    4472    4473    4474    4475    4477    4478
    4479    4483    4484    4469    4470    4471    4472    4473    4474    4478
    4480    4481    4482    4484    4485    4486    4487    4470    4471    4475
    4476    4477    4483    4475    4476    4472    4475    4476    4477    4478
    4479    4483    4473    4475    4477    4478    4479    4480    4484    4474
    4478    4479    4480    4481    4482    4484    4485    4486    4488    4489
    4490    4478    4480    4481    4482    4485    4487    4488    4476    4477
    4483    4483    4483    4479    4480    4484    4485    4486    4484    4481
    4484    4485    4486    4487    4488    4489    4490    4491    4492    4493
    4482    4485    4486    4487    4488    4491    4492    4485    4487       0
       0    4486    4487    4488    4489    4490    4491    4492    4494    4495
    4496    4488    4489    4490    4491    4493    4494    4488    4489    4491
    4492    4493    4494    4495    4496    4497    4498    4499    4490    4491
    4492    4493    4494    4497    4498    4491    4493    4492    4493    4494
    4495    4496    4497    4498    4500    4494    4495    4496    4497    4499
    4500    4494    4495    4497    4498    4499    4500    4496    4497    4498
    4499    4500    4497    4499    4498    4499    4500    4500    4500       0
    4502    4503    4504    4505    4506    4507    4508    4509    4510    4511
    4512    4513    4514    4515    4516    4517    4518    4503    4504    4505
    4506    4507    4508    4509    4510    4511    4512    4519    4504    4505
    4506    4507    4508    4509    4510    4511    4513    4514    4515    4519
    4520    4505    4506    4507    4508    4509    4510    4514    4516    4517
    4518    4520    4521    4522    4523    4506    4507    4511    4512    4513
    4519    4511    4512    4508    4511    4512    4513    4514    4515    4519
    4509    4511    4513    4514    4515    4516    4520    4510    4514    4515
    4516    4517    4518    4520    4521    4522    4524    4525    4526    4514
    4516    4517    4518    4521    4523    4524    4512    4513    4519    4519
    4519    4515    4516    4520    4521    4522    4520    4517    4520    4521
    4522    4523    4524    4525    4526    4527    4528    4529    4518    4521
    4522    4523    4524    4527    4528    4521    4523       0       0    4522
    4523    4524    4525    4526    4527    4528    4530    4531    4532    4524
    4525    4526    4527    4529    4530    4524    4525    4527    4528    4529
    4530    4531    4532    4533    4534    4535    4526    4527    4528    4529
    4530    4533    4534    4527    4529    4528    4529    4530    4531    4532
    4533    4534    4536    4530    4531    4532    4533    4535    4536    4530
    4531    4533    4534    4535    4536    4532    4533    4534    4535    4536
    4533    4535    4534    4535    4536    4536    4536       0    4538    4539
    4540    4541    4542    4543    4544    4545    4546    4547    4548    4549
    4550    4551    4552    4553    4554    4539    4540    4541    4542    4543
    4544    4545    4546    4547    4548    4555    4540    4541    4542    4543
    4544    4545    4546    4547    4549    4550    4551    4555    4556    4541
    4542    4543    4544    4545    4546    4550    4552    4553    4554    4556
    4557    4558    4559    4542    4543    4547    4548    4549    4555    4547
    4548    4544    4547    4548    4549    4550    4551    4555    4545    4547
    4549    4550    4551    4552    4556    4546    4550    4551    4552    4553
    4554    4556    4557    4558    4560    4561    4562    4550    4552    4553
    4554    4557    4559    4560    4548    4549    4555    4555    4555    4551
    4552    4556    4557    4558    4556    4553    4556    4557    4558    4559
    4560    4561    4562    4563    4564    4565    4554    4557    4558    4559
    4560    4563    4564    4557    4559       0       0    4558    4559    4560
    4561    4562    4563    4564    4566    4567    4568    4560    4561    4562
    4563    4565    4566    4560    4561    4563    4564    4565    4566    4567
    4568    4569    4570    4571    4562    4563    4564    4565    4566    4569
    4570    4563    4565    4564    4565    4566    4567    4568    4569    4570
    4572    4566    4567    4568    4569    4571    4572    4566    4567    4569
    4570    4571    4572    4568    4569    4570    4571    4572    4569    4571
    4570    4571    4572    4572    4572       0    4574    4575    4576    4577
    4578    4579    4580    4581    4582    4583    4584    4585    4586    4587
    4588    4589    4590    4575    4576    4577    4578    4579    4580    4581
    4582    4583    4584    4591    4576    4577    4578    4579    4580    4581
    4582    4583    4585    4586    4587    4591    4592    4577    4578    4579
    4580    4581    4582    4586    4588    4589    4590    4592    4593    4594
    4595    4578    4579    4583    4584    4585    4591    4583    4584    4580
    4583    4584    4585    4586    4587    4591    4581    4583    4585    4586
    4587    4588    4592    4582    4586    4587    4588    4589    4590    4592
    4593    4594    4596    4597    4598    4586    4588    4589    4590    4593
    4595    4596    4584    4585    4591    4591    4591    4587    4588    4592
    4593    4594    4592    4589    4592    4593    4594    4595    4596    4597
    4598    4599    4600    4601    4590    4593    4594    4595    4596    4599
    4600    4593    4595       0       0    4594    4595    4596    4597    4598
    4599    4600    4602    4603    4604    4596    4597    4598    4599    4601
    4602    4596    4597    4599    4600    4601    4602    4603    4604    4605
    4606    4607    4598    4599    4600    4601    4602    4605    4606    4599
    4601    4600    4601    4602    4603    4604    4605    4606    4608    4602
    4603    4604    4605    4607    4608    4602    4603    4605    4606    4607
    4608    4604    4605    4606    4607    4608    4605    4607    4606    4607
    4608    4608    4608       0    4610    4611    4612    4613    4614    4615
    4616    4617    4618    4619    4620    4621    4622    4623    4624    4625
    4626    4611    4612    4613    4614    4615    4616    4617    4618    4619
    4620    4627    4612    4613    4614    4615    4616    4617    4618    4619
    4621    4622    4623    4627    4628    4613    4614    4615    4616    4617
    4618    4622    4624    4625    4626    4628    4629    4630    4631    4614
    4615    4619    4620    4621    4627    4619    4620    4616    4619    4620
    4621    4622    4623    4627    4617    4619    4621    4622    4623    4624
    4628    4618    4622    4623    4624    4625    4626    4628    4629    4630
    4632    4633    4634    4622    4624    4625    4626    4629    4631    4632
    4620    4621    4627    4627    4627    4623    4624    4628    4629    4630
    4628    4625    4628    4629    4630    4631    4632    4633    4634    4635
    4636    4637    4626    4629    4630    4631    4632    4635    4636    4629
    4631       0       0    4630    4631    4632    4633    4634    4635    4636
    4638    4639    4640    4632    4633    4634    4635    4637    4638    4632
    4633    4635    4636    4637    4638    4639    4640    4641    4642    4643
    4634    4635    4636    4637    4638    4641    4642    4635    4637    4636
    4637    4638    4639    4640    4641    4642    4644    4638    4639    4640
    4641    4643    4644    4638    4639    4641    4642    4643    4644    4640
    4641    4642    4643    4644    4641    4643    4642    4643    4644    4644
    4644       0    4646    4647    4648    4649    4650    4651    4652    4653
    4654    4655    4656    4657    4658    4659    4660    4661    4662    4647
    4648    4649    4650    4651    4652    4653    4654    4655    4656    4663
    4648    4649    4650    4651    4652    4653    4654    4655    4657    4658
    4659    4663    4664    4649    4650    4651    4652    4653    4654    4658
    4660    4661    4662    4664    4665    4666    4667    4650    4651    4655
    4656    4657    4663    4655    4656    4652    4655    4656    4657    4658
    4659    4663    4653    4655    4657    4658    4659    4660    4664    4654
    4658    4659    4660    4661    4662    4664    4665    4666    4668    4669
    4670    4658    4660    4661    4662    4665    4667    4668    4656    4657
    4663    4663    4663    4659    4660    4664    4665    4666    4664    4661
    4664    4665    4666    4667    4668    4669    4670    4671    4672    4673
    4662    4665    4666    4667    4668    4671    4672    4665    4667       0
       0    4666    4667    4668    4669    4670    4671    4672    4674    4675
    4676    4668    4669    4670    4671    4673    4674    4668    4669    4671
    4672    4673    4674    4675    4676    4677    4678    4679    4670    4671
    4672    4673    4674    4677    4678    4671    4673    4672    4673    4674
    4675    4676    4677    4678    4680    4674    4675    4676    4677    4679
    4680    4674    4675    4677    4678    4679    4680    4676    4677    4678
    4679    4680    4677    4679    4678    4679    4680    4680    4680       0
    4682    4683    4684    4685    4686    4687    4688    4689    4690    4691
    4692    4693    4694    4695    4696    4697    4698    4683    4684    4685
    4686    4687    4688    4689    4690    4691    4692    4699    4684    4685
    4686    4687    4688    4689    4690    4691    4693    4694    4695    4699
    4700    4685    4686    4687    4688    4689    4690    4694    4696    4697
    4698    4700    4701    4702    4703    4686    4687    4691    4692    4693
    4699    4691    4692    4688    4691    4692    4693    4694    4695    4699
    4689    4691    4693    4694    4695    4696    4700    4690    4694    4695
    4696    4697    4698    4700    4701    4702    4704    4705    4706    4694
    4696    4697    4698    4701    4703    4704    4692    4693    4699    4699
    4699    4695    4696    4700    4701    4702    4700    4697    4700    4701
    4702    4703    4704    4705    4706    4707    4708    4709    4698    4701
    4702    4703    4704    4707    4708    4701    4703       0       0    4702
    4703    4704    4705    4706    4707    4708    4710    4711    4712    4704
    4705    4706    4707    4709    4710    4704    4705    4707    4708    4709
    4710    4711    4712    4713    4714    4715    4706    4707    4708    4709
    4710    4713    4714    4707    4709    4708    4709    4710    4711    4712
    4713    4714    4716    4710    4711    4712    4713    4715    4716    4710
    4711    4713    4714    4715    4716    4712    4713    4714    4715    4716
    4713    4715    4714    4715    4716    4716    4716       0    4718    4719
    4720    4721    4722    4723    4724    4725    4726    4727    4728    4729
    4730    4731    4732    4733    4734    4719    4720    4721    4722    4723
    4724    4725    4726    4727    4728    4735    4720    4721    4722    4723
    4724    4725    4726    4727    4729    4730    4731    4735    4736    4721
    4722    4723    4724    4725    4726    4730    4732    4733    4734    4736
    4737    4738    4739    4722    4723    4727    4728    4729    4735    4727
    4728    4724    4727    4728    4729    4730    4731    4735    4725    4727
    4729    4730    4731    4732    4736    4726    4730    4731    4732    4733
    4734    4736    4737    4738    4740    4741    4742    4730    4732    4733
    4734    4737    4739    4740    4728    4729    4735    4735    4735    4731
    4732    4736    4737    4738    4736    4733    4736    4737    4738    4739
    4740    4741    4742    4743    4744    4745    4734    4737    4738    4739
    4740    4743    4744    4737    4739       0       0    4738    4739    4740
    4741    4742    4743    4744    4746    4747    4748    4740    4741    4742
    4743    4745    4746    4740    4741    4743    4744    4745    4746    4747
    4748    4749    4750    4751    4742    4743    4744    4745    4746    4749
    4750    4743    4745    4744    4745    4746    4747    4748    4749    4750
    4752    4746    4747    4748    4749    4751    4752    4746    4747    4749
    4750    4751    4752    4748    4749    4750    4751    4752    4749    4751
    4750    4751    4752    4752    4752       0    4754    4755    4756    4757
    4758    4759    4760    4761    4762    4763    4764    4765    4766    4767
    4768    4769    4770    4755    4756    4757    4758    4759    4760    4761
    4762    4763    4764    4771    4756    4757    4758    4759    4760    4761
    4762    4763    4765    4766    4767    4771    4772    4757    4758    4759
    4760    4761    4762    4766    4768    4769    4770    4772    4773    4774
    4775    4758    4759    4763    4764    4765    4771    4763    4764    4760
    4763    4764    4765    4766    4767    4771    4761    4763    4765    4766
    4767    4768    4772    4762    4766    4767    4768    4769    4770    4772
    4773    4774    4776    4777    4778    4766    4768    4769    4770    4773
    4775    4776    4764    4765    4771    4771    4771    4767    4768    4772
    4773    4774    4772    4769    4772    4773    4774    4775    4776    4777
    4778    4779    4780    4781    4770    4773    4774    4775    4776    4779
    4780    4773    4775       0       0    4774    4775    4776    4777    4778
    4779    4780    4782    4783    4784    4776    4777    4778    4779    4781
    4782    4776    4777    4779    4780    4781    4782    4783    4784    4785
    4786    4787    4778    4779    4780    4781    4782    4785    4786    4779
    4781    4780    4781    4782    4783    4784    4785    4786    4788    4782
    4783    4784    4785    4787    4788    4782    4783    4785    4786    4787
    4788    4784    4785    4786    4787    4788    4785    4787    4786    4787
    4788    4788    4788       0    4790    4791    4792    4793    4794    4795
    4796    4797    4798    4799    4800    4801    4802    4803    4804    4805
    4806    4791    4792    4793    4794    4795    4796    4797    4798    4799
    4800    4807    4792    4793    4794    4795    4796    4797    4798    4799
    4801    4802    4803    4807    4808    4793    4794    4795    4796    4797
    4798    4802    4804    4805    4806    4808    4809    4810    4811    4794
    4795    4799    4800    4801    4807    4799    4800    4796    4799    4800
    4801    4802    4803    4807    4797    4799    4801    4802    4803    4804
    4808    4798    4802    4803    4804    4805    4806    4808    4809    4810
    4812    4813    4814    4802    4804    4805    4806    4809    4811    4812
    4800    4801    4807    4807    4807    4803    4804    4808    4809    4810
    4808    4805    4808    4809    4810    4811    4812    4813    4814    4815
    4816    4817    4806    4809    4810    4811    4812    4815    4816    4809
    4811       0       0    4810    4811    4812    4813    4814    4815    4816
    4818    4819    4820    4812    4813    4814    4815    4817    4818    4812
    4813    4815    4816    4817    4818    4819    4820    4821    4822    4823
    4814    4815    4816    4817    4818    4821    4822    4815    4817    4816
    4817    4818    4819    4820    4821    4822    4824    4818    4819    4820
    4821    4823    4824    4818    4819    4821    4822    4823    4824    4820
    4821    4822    4823    4824    4821    4823    4822    4823    4824    4824
    4824       0    4826    4827    4828    4829    4830    4831    4832    4833
    4834    4835    4836    4837    4838    4839    4840    4841    4842    4827
    4828    4829    4830    4831    4832    4833    4834    4835    4836    4843
    4828    4829    4830    4831    4832    4833    4834    4835    4837    4838
    4839    4843    4844    4829    4830    4831    4832    4833    4834    4838
    4840    4841    4842    4844    4845    4846    4847    4830    4831    4835
    4836    4837    4843    4835    4836    4832    4835    4836    4837    4838
    4839    4843    4833    4835    4837    4838    4839    4840    4844    4834
    4838    4839    4840    4841    4842    4844    4845    4846    4848    4849
    4850    4838    4840    4841    4842    4845    4847    4848    4836    4837
    4843    4843    4843    4839    4840    4844    4845    4846    4844    4841
    4844    4845    4846    4847    4848    4849    4850    4851    4852    4853
    4842    4845    4846    4847    4848    4851    4852    4845    4847       0
       0    4846    4847    4848    4849    4850    4851    4852    4854    4855
    4856    4848    4849    4850    4851    4853    4854    4848    4849    4851
    4852    4853    4854    4855    4856    4857    4858    4859    4850    4851
    4852    4853    4854    4857    4858    4851    4853    4852    4853    4854
    4855    4856    4857    4858    4860    4854    4855    4856    4857    4859
    4860    4854    4855    4857    4858    4859    4860    4856    4857    4858
    4859    4860    4857    4859    4858    4859    4860    4860    4860       0
    4862    4863    4864    4865    4866    4867    4868    4869    4870    4871
    4872    4873    4874    4875    4876    4877    4878    4863    4864    4865
    4866    4867    4868    4869    4870    4871    4872    4879    4864    4865
    4866    4867    4868    4869    4870    4871    4873    4874    4875    4879
    4880    4865    4866    4867    4868    4869    4870    4874    4876    4877
    4878    4880    4881    4882    4883    4866    4867    4871    4872    4873
    4879    4871    4872    4868    4871    4872    4873    4874    4875    4879
    4869    4871    4873    4874    4875    4876    4880    4870    4874    4875
    4876    4877    4878    4880    4881    4882    4884    4885    4886    4874
    4876    4877    4878    4881    4883    4884    4872    4873    4879    4879
    4879    4875    4876    4880    4881    4882    4880    4877    4880    4881
    4882    4883    4884    4885    4886    4887    4888    4889    4878    4881
    4882    4883    4884    4887    4888    4881    4883       0       0    4882
    4883    4884    4885    4886    4887    4888    4890    4891    4892    4884
    4885    4886    4887    4889    4890    4884    4885    4887    4888    4889
    4890    4891    4892    4893    4894    4895    4886    4887    4888    4889
    4890    4893    4894    4887    4889    4888    4889    4890    4891    4892
    4893    4894    4896    4890    4891    4892    4893    4895    4896    4890
    4891    4893    4894    4895    4896    4892    4893    4894    4895    4896
    4893    4895    4894    4895    4896    4896    4896       0    4898    4899
    4900    4901    4902    4903    4904    4905    4906    4907    4908    4909
    4910    4911    4912    4913    4914    4899    4900    4901    4902    4903
    4904    4905    4906    4907    4908    4915    4900    4901    4902    4903
    4904    4905    4906    4907    4909    4910    4911    4915    4916    4901
    4902    4903    4904    4905    4906    4910    4912    4913    4914    4916
    4917    4918    4919    4902    4903    4907    4908    4909    4915    4907
    4908    4904    4907    4908    4909    4910    4911    4915    4905    4907
    4909    4910    4911    4912    4916    4906    4910    4911    4912    4913
    4914    4916    4917    4918    4920    4921    4922    4910    4912    4913
    4914    4917    4919    4920    4908    4909    4915    4915    4915    4911
    4912    4916    4917    4918    4916    4913    4916    4917    4918    4919
    4920    4921    4922    4923    4924    4925    4914    4917    4918    4919
    4920    4923    4924    4917    4919       0       0    4918    4919    4920
    4921    4922    4923    4924    4926    4927    4928    4920    4921    4922
    4923    4925    4926    4920    4921    4923    4924    4925    4926    4927
    4928    4929    4930    4931    4922    4923    4924    4925    4926    4929
    4930    4923    4925    4924    4925    4926    4927    4928    4929    4930
    4932    4926    4927    4928    4929    4931    4932    4926    4927    4929
    4930    4931    4932    4928    4929    4930    4931    4932    4929    4931
    4930    4931    4932    4932    4932       0    4934    4935    4936    4937
    4938    4939    4940    4941    4942    4943    4944    4945    4946    4947
    4948    4949    4950    4935    4936    4937    4938    4939    4940    4941
    4942    4943    4944    4951    4936    4937    4938    4939    4940    4941
    4942    4943    4945    4946    4947    4951    4952    4937    4938    4939
    4940    4941    4942    4946    4948    4949    4950    4952    4953    4954
    4955    4938    4939    4943    4944    4945    4951    4943    4944    4940
    4943    4944    4945    4946    4947    4951    4941    4943    4945    4946
    4947    4948    4952    4942    4946    4947    4948    4949    4950    4952
    4953    4954    4956    4957    4958    4946    4948    4949    4950    4953
    4955    4956    4944    4945    4951    4951    4951    4947    4948    4952
    4953    4954    4952    4949    4952    4953    4954    4955    4956    4957
    4958    4959    4960    4961    4950    4953    4954    4955    4956    4959
    4960    4953    4955       0       0    4954    4955    4956    4957    4958
    4959    4960    4962    4963    4964    4956    4957    4958    4959    4961
    4962    4956    4957    4959    4960    4961    4962    4963    4964    4965
    4966    4967    4958    4959    4960    4961    4962    4965    4966    4959
    4961    4960    4961    4962    4963    4964    4965    4966    4968    4962
    4963    4964    4965    4967    4968    4962    4963    4965    4966    4967
    4968    4964    4965    4966    4967    4968    4965    4967    4966    4967
    4968    4968    4968       0    4970    4971    4972    4973    4974    4975
    4976    4977    4978    4979    4980    4981    4982    4983    4984    4985
    4986    4971    4972    4973    4974    4975    4976    4977    4978    4979
    4980    4987    4972    4973    4974    4975    4976    4977    4978    4979
    4981    4982    4983    4987    4988    4973    4974    4975    4976    4977
    4978    4982    4984    4985    4986    4988    4989    4990    4991    4974
    4975    4979    4980    4981    4987    4979    4980    4976    4979    4980
    4981    4982    4983    4987    4977    4979    4981    4982    4983    4984
    4988    4978    4982    4983    4984    4985    4986    4988    4989    4990
    4992    4993    4994    4982    4984    4985    4986    4989    4991    4992
    4980    4981    4987    4987    4987    4983    4984    4988    4989    4990
    4988    4985    4988    4989    4990    4991    4992    4993    4994    4995
    4996    4997    4986    4989    4990    4991    4992    4995    4996    4989
    4991       0       0    4990    4991    4992    4993    4994    4995    4996
    4998    4999    5000    4992    4993    4994    4995    4997    4998    4992
    4993    4995    4996    4997    4998    4999    5000    5001    5002    5003
    4994    4995    4996    4997    4998    5001    5002    4995    4997    4996
    4997    4998    4999    5000    5001    5002    5004    4998    4999    5000
    5001    5003    5004    4998    4999    5001    5002    5003    5004    5000
    5001    5002    5003    5004    5001    5003    5002    5003    5004    5004
    5004       0    5006    5007    5008    5009    5010    5011    5012    5013
    5014    5015    5016    5017    5018    5019    5020    5021    5022    5007
    5008    5009    5010    5011    5012    5013    5014    5015    5016    5023
    5008    5009    5010    5011    5012    5013    5014    5015    5017    5018
    5019    5023    5024    5009    5010    5011    5012    5013    5014    5018
    5020    5021    5022    5024    5025    5026    5027    5010    5011    5015
    5016    5017    5023    5015    5016    5012    5015    5016    5017    5018
    5019    5023    5013    5015    5017    5018    5019    5020    5024    5014
    5018    5019    5020    5021    5022    5024    5025    5026    5028    5029
    5030    5018    5020    5021    5022    5025    5027    5028    5016    5017
    5023    5023    5023    5019    5020    5024    5025    5026    5024    5021
    5024    5025    5026    5027    5028    5029    5030    5031    5032    5033
    5022    5025    5026    5027    5028    5031    5032    5025    5027       0
       0    5026    5027    5028    5029    5030    5031    5032    5034    5035
    5036    5028    5029    5030    5031    5033    5034    5028    5029    5031
    5032    5033    5034    5035    5036    5037    5038    5039    5030    5031
    5032    5033    5034    5037    5038    5031    5033    5032    5033    5034
    5035    5036    5037    5038    5040    5034    5035    5036    5037    5039
    5040    5034    5035    5037    5038    5039    5040    5036    5037    5038
    5039    5040    5037    5039    5038    5039    5040    5040    5040       0
    5042    5043    5044    5045    5046    5047    5048    5049    5050    5051
    5052    5053    5054    5055    5056    5057    5058    5043    5044    5045
    5046    5047    5048    5049    5050    5051    5052    5059    5044    5045
    5046    5047    5048    5049    5050    5051    5053    5054    5055    5059
    5060    5045    5046    5047    5048    5049    5050    5054    5056    5057
    5058    5060    5061    5062    5063    5046    5047    5051    5052    5053
    5059    5051    5052    5048    5051    5052    5053    5054    5055    5059
    5049    5051    5053    5054    5055    5056    5060    5050    5054    5055
    5056    5057    5058    5060    5061    5062    5064    5065    5066    5054
    5056    5057    5058    5061    5063    5064    5052    5053    5059    5059
    5059    5055    5056    5060    5061    5062    5060    5057    5060    5061
    5062    5063    5064    5065    5066    5067    5068    5069    5058    5061
    5062    5063    5064    5067    5068    5061    5063       0       0    5062
    5063    5064    5065    5066    5067    5068    5070    5071    5072    5064
    5065    5066    5067    5069    5070    5064    5065    5067    5068    5069
    5070    5071    5072    5073    5074    5075    5066    5067    5068    5069
    5070    5073    5074    5067    5069    5068    5069    5070    5071    5072
    5073    5074    5076    5070    5071    5072    5073    5075    5076    5070
    5071    5073    5074    5075    5076    5072    5073    5074    5075    5076
    5073    5075    5074    5075    5076    5076    5076       0    5078    5079
    5080    5081    5082    5083    5084    5085    5086    5087    5088    5089
    5090    5091    5092    5093    5094    5079    5080    5081    5082    5083
    5084    5085    5086    5087    5088    5095    5080    5081    5082    5083
    5084    5085    5086    5087    5089    5090    5091    5095    5096    5081
    5082    5083    5084    5085    5086    5090    5092    5093    5094    5096
    5097    5098    5099    5082    5083    5087    5088    5089    5095    5087
    5088    5084    5087    5088    5089    5090    5091    5095    5085    5087
    5089    5090    5091    5092    5096    5086    5090    5091    5092    5093
    5094    5096    5097    5098    5100    5101    5102    5090    5092    5093
    5094    5097    5099    5100    5088    5089    5095    5095    5095    5091
    5092    5096    5097    5098    5096    5093    5096    5097    5098    5099
    5100    5101    5102    5103    5104    5105    5094    5097    5098    5099
    5100    5103    5104    5097    5099       0       0    5098    5099    5100
    5101    5102    5103    5104    5106    5107    5108    5100    5101    5102
    5103    5105    5106    5100    5101    5103    5104    5105    5106    5107
    5108    5109    5110    5111    5102    5103    5104    5105    5106    5109
    5110    5103    5105    5104    5105    5106    5107    5108    5109    5110
    5112    5106    5107    5108    5109    5111    5112    5106    5107    5109
    5110    5111    5112    5108    5109    5110    5111    5112    5109    5111
    5110    5111    5112    5112    5112       0    5114    5115    5116    5117
    5118    5119    5120    5121    5122    5123    5124    5125    5126    5127
    5128    5129    5130    5115    5116    5117    5118    5119    5120    5121
    5122    5123    5124    5131    5116    5117    5118    5119    5120    5121
    5122    5123    5125    5126    5127    5131    5132    5117    5118    5119
    5120    5121    5122    5126    5128    5129    5130    5132    5133    5134
    5135    5118    5119    5123    5124    5125    5131    5123    5124    5120
    5123    5124    5125    5126    5127    5131    5121    5123    5125    5126
    5127    5128    5132    5122    5126    5127    5128    5129    5130    5132
    5133    5134    5136    5137    5138    5126    5128    5129    5130    5133
    5135    5136    5124    5125    5131    5131    5131    5127    5128    5132
    5133    5134    5132    5129    5132    5133    5134    5135    5136    5137
    5138    5139    5140    5141    5130    5133    5134    5135    5136    5139
    5140    5133    5135       0       0    5134    5135    5136    5137    5138
    5139    5140    5142    5143    5144    5136    5137    5138    5139    5141
    5142    5136    5137    5139    5140    5141    5142    5143    5144    5145
    5146    5147    5138    5139    5140    5141    5142    5145    5146    5139
    5141    5140    5141    5142    5143    5144    5145    5146    5148    5142
    5143    5144    5145    5147    5148    5142    5143    5145    5146    5147
    5148    5144    5145    5146    5147    5148    5145    5147    5146    5147
    5148    5148    5148       0    5150    5151    5152    5153    5154    5155
    5156    5157    5158    5159    5160    5161    5162    5163    5164    5165
    5166    5151    5152    5153    5154    5155    5156    5157    5158    5159
    5160    5167    5152    5153    5154    5155    5156    5157    5158    5159
    5161    5162    5163    5167    5168    5153    5154    5155    5156    5157
    5158    5162    5164    5165    5166    5168    5169    5170    5171    5154
    5155    5159    5160    5161    5167    5159    5160    5156    5159    5160
    5161    5162    5163    5167    5157    5159    5161    5162    5163    5164
    5168    5158    5162    5163    5164    5165    5166    5168    5169    5170
    5172    5173    5174    5162    5164    5165    5166    5169    5171    5172
    5160    5161    5167    5167    5167    5163    5164    5168    5169    5170
    5168    5165    5168    5169    5170    5171    5172    5173    5174    5175
    5176    5177    5166    5169    5170    5171    5172    5175    5176    5169
    5171       0       0    5170    5171    5172    5173    5174    5175    5176
    5178    5179    5180    5172    5173    5174    5175    5177    5178    5172
    5173    5175    5176    5177    5178    5179    5180    5181    5182    5183
    5174    5175    5176    5177    5178    5181    5182    5175    5177    5176
    5177    5178    5179    5180    5181    5182    5184    5178    5179    5180
    5181    5183    5184    5178    5179    5181    5182    5183    5184    5180
    5181    5182    5183    5184    5181    5183    5182    5183    5184    5184
    5184       0    5186    5187    5188    5189    5190    5191    5192    5193
    5194    5195    5196    5197    5198    5199    5200    5201    5202    5187
    5188    5189    5190    5191    5192    5193    5194    5195    5196    5203
    5188    5189    5190    5191    5192    5193    5194    5195    5197    5198
    5199    5203    5204    5189    5190    5191    5192    5193    5194    5198
    5200    5201    5202    5204    5205    5206    5207    5190    5191    5195
    5196    5197    5203    5195    5196    5192    5195    5196    5197    5198
    5199    5203    5193    5195    5197    5198    5199    5200    5204    5194
    5198    5199    5200    5201    5202    5204    5205    5206    5208    5209
    5210    5198    5200    5201    5202    5205    5207    5208    5196    5197
    5203    5203    5203    5199    5200    5204    5205    5206    5204    5201
    5204    5205    5206    5207    5208    5209    5210    5211    5212    5213
    5202    5205    5206    5207    5208    5211    5212    5205    5207       0
       0    5206    5207    5208    5209    5210    5211    5212    5214    5215
    5216    5208    5209    5210    5211    5213    5214    5208    5209    5211
    5212    5213    5214    5215    5216    5217    5218    5219    5210    5211
    5212    5213    5214    5217    5218    5211    5213    5212    5213    5214
    5215    5216    5217    5218    5220    5214    5215    5216    5217    5219
    5220    5214    5215    5217    5218    5219    5220    5216    5217    5218
    5219    5220    5217    5219    5218    5219    5220    5220    5220       0
    5222    5223    5224    5225    5226    5227    5228    5229    5230    5231
    5232    5233    5234    5235    5236    5237    5238    5223    5224    5225
    5226    5227    5228    5229    5230    5231    5232    5239    5224    5225
    5226    5227    5228    5229    5230    5231    5233    5234    5235    5239
    5240    5225    5226    5227    5228    5229    5230    5234    5236    5237
    5238    5240    5241    5242    5243    5226    5227    5231    5232    5233
    5239    5231    5232    5228    5231    5232    5233    5234    5235    5239
    5229    5231    5233    5234    5235    5236    5240    5230    5234    5235
    5236    5237    5238    5240    5241    5242    5244    5245    5246    5234
    5236    5237    5238    5241    5243    5244    5232    5233    5239    5239
    5239    5235    5236    5240    5241    5242    5240    5237    5240    5241
    5242    5243    5244    5245    5246    5247    5248    5249    5238    5241
    5242    5243    5244    5247    5248    5241    5243       0       0    5242
    5243    5244    5245    5246    5247    5248    5250    5251    5252    5244
    5245    5246    5247    5249    5250    5244    5245    5247    5248    5249
    5250    5251    5252    5253    5254    5255    5246    5247    5248    5249
    5250    5253    5254    5247    5249    5248    5249    5250    5251    5252
    5253    5254    5256    5250    5251    5252    5253    5255    5256    5250
    5251    5253    5254    5255    5256    5252    5253    5254    5255    5256
    5253    5255    5254    5255    5256    5256    5256       0    5258    5259
    5260    5261    5262    5263    5264    5265    5266    5267    5268    5269
    5270    5271    5272    5273    5274    5259    5260    5261    5262    5263
    5264    5265    5266    5267    5268    5275    5260    5261    5262    5263
    5264    5265    5266    5267    5269    5270    5271    5275    5276    5261
    5262    5263    5264    5265    5266    5270    5272    5273    5274    5276
    5277    5278    5279    5262    5263    5267    5268    5269    5275    5267
    5268    5264    5267    5268    5269    5270    5271    5275    5265    5267
    5269    5270    5271    5272    5276    5266    5270    5271    5272    5273
    5274    5276    5277    5278    5280    5281    5282    5270    5272    5273
    5274    5277    5279    5280    5268    5269    5275    5275    5275    5271
    5272    5276    5277    5278    5276    5273    5276    5277    5278    5279
    5280    5281    5282    5283    5284    5285    5274    5277    5278    5279
    5280    5283    5284    5277    5279       0       0    5278    5279    5280
    5281    5282    5283    5284    5286    5287    5288    5280    5281    5282
    5283    5285    5286    5280    5281    5283    5284    5285    5286    5287
    5288    5289    5290    5291    5282    5283    5284    5285    5286    5289
    5290    5283    5285    5284    5285    5286    5287    5288    5289    5290
    5292    5286    5287    5288    5289    5291    5292    5286    5287    5289
    5290    5291    5292    5288    5289    5290    5291    5292    5289    5291
    5290    5291    5292    5292    5292       0    5294    5295    5296    5297
    5298    5299    5300    5301    5302    5303    5304    5305    5306    5307
    5308    5309    5310    5295    5296    5297    5298    5299    5300    5301
    5302    5303    5304    5311    5296    5297    5298    5299    5300    5301
    5302    5303    5305    5306    5307    5311    5312    5297    5298    5299
    5300    5301    5302    5306    5308    5309    5310    5312    5313    5314
    5315    5298    5299    5303    5304    5305    5311    5303    5304    5300
    5303    5304    5305    5306    5307    5311    5301    5303    5305    5306
    5307    5308    5312    5302    5306    5307    5308    5309    5310    5312
    5313    5314    5316    5317    5318    5306    5308    5309    5310    5313
    5315    5316    5304    5305    5311    5311    5311    5307    5308    5312
    5313    5314    5312    5309    5312    5313    5314    5315    5316    5317
    5318    5319    5320    5321    5310    5313    5314    5315    5316    5319
    5320    5313    5315       0       0    5314    5315    5316    5317    5318
    5319    5320    5322    5323    5324    5316    5317    5318    5319    5321
    5322    5316    5317    5319    5320    5321    5322    5323    5324    5325
    5326    5327    5318    5319    5320    5321    5322    5325    5326    5319
    5321    5320    5321    5322    5323    5324    5325    5326    5328    5322
    5323    5324    5325    5327    5328    5322    5323    5325    5326    5327
    5328    5324    5325    5326    5327    5328    5325    5327    5326    5327
    5328    5328    5328       0    5330    5331    5332    5333    5334    5335
    5336    5337    5338    5339    5340    5341    5342    5343    5344    5345
    5346    5331    5332    5333    5334    5335    5336    5337    5338    5339
    5340    5347    5332    5333    5334    5335    5336    5337    5338    5339
    5341    5342    5343    5347    5348    5333    5334    5335    5336    5337
    5338    5342    5344    5345    5346    5348    5349    5350    5351    5334
    5335    5339    5340    5341    5347    5339    5340    5336    5339    5340
    5341    5342    5343    5347    5337    5339    5341    5342    5343    5344
    5348    5338    5342    5343    5344    5345    5346    5348    5349    5350
    5352    5353    5354    5342    5344    5345    5346    5349    5351    5352
    5340    5341    5347    5347    5347    5343    5344    5348    5349    5350
    5348    5345    5348    5349    5350    5351    5352    5353    5354    5355
    5356    5357    5346    5349    5350    5351    5352    5355    5356    5349
    5351       0       0    5350    5351    5352    5353    5354    5355    5356
    5358    5359    5360    5352    5353    5354    5355    5357    5358    5352
    5353    5355    5356    5357    5358    5359    5360    5361    5362    5363
    5354    5355    5356    5357    5358    5361    5362    5355    5357    5356
    5357    5358    5359    5360    5361    5362    5364    5358    5359    5360
    5361    5363    5364    5358    5359    5361    5362    5363    5364    5360
    5361    5362    5363    5364    5361    5363    5362    5363    5364    5364
    5364       0    5366    5367    5368    5369    5370    5371    5372    5373
    5374    5375    5376    5377    5378    5379    5380    5381    5382    5367
    5368    5369    5370    5371    5372    5373    5374    5375    5376    5383
    5368    5369    5370    5371    5372    5373    5374    5375    5377    5378
    5379    5383    5384    5369    5370    5371    5372    5373    5374    5378
    5380    5381    5382    5384    5385    5386    5387    5370    5371    5375
    5376    5377    5383    5375    5376    5372    5375    5376    5377    5378
    5379    5383    5373    5375    5377    5378    5379    5380    5384    5374
    5378    5379    5380    5381    5382    5384    5385    5386    5388    5389
    5390    5378    5380    5381    5382    5385    5387    5388    5376    5377
    5383    5383    5383    5379    5380    5384    5385    5386    5384    5381
    5384    5385    5386    5387    5388    5389    5390    5391    5392    5393
    5382    5385    5386    5387    5388    5391    5392    5385    5387       0
       0    5386    5387    5388    5389    5390    5391    5392    5394    5395
    5396    5388    5389    5390    5391    5393    5394    5388    5389    5391
    5392    5393    5394    5395    5396    5397    5398    5399    5390    5391
    5392    5393    5394    5397    5398    5391    5393    5392    5393    5394
    5395    5396    5397    5398    5400    5394    5395    5396    5397    5399
    5400    5394    5395    5397    5398    5399    5400    5396    5397    5398
    5399    5400    5397    5399    5398    5399    5400    5400    5400       0
    5402    5403    5404    5405    5406    5407    5408    5409    5410    5411
    5412    5413    5414    5415    5416    5417    5418    5403    5404    5405
    5406    5407    5408    5409    5410    5411    5412    5419    5404    5405
    5406    5407    5408    5409    5410    5411    5413    5414    5415    5419
    5420    5405    5406    5407    5408    5409    5410    5414    5416    5417
    5418    5420    5421    5422    5423    5406    5407    5411    5412    5413
    5419    5411    5412    5408    5411    5412    5413    5414    5415    5419
    5409    5411    5413    5414    5415    5416    5420    5410    5414    5415
    5416    5417    5418    5420    5421    5422    5424    5425    5426    5414
    5416    5417    5418    5421    5423    5424    5412    5413    5419    5419
    5419    5415    5416    5420    5421    5422    5420    5417    5420    5421
    5422    5423    5424    5425    5426    5427    5428    5429    5418    5421
    5422    5423    5424    5427    5428    5421    5423       0       0    5422
    5423    5424    5425    5426    5427    5428    5430    5431    5432    5424
    5425    5426    5427    5429    5430    5424    5425    5427    5428    5429
    5430    5431    5432    5433    5434    5435    5426    5427    5428    5429
    5430    5433    5434    5427    5429    5428    5429    5430    5431    5432
    5433    5434    5436    5430    5431    5432    5433    5435    5436    5430
    5431    5433    5434    5435    5436    5432    5433    5434    5435    5436
    5433    5435    5434    5435    5436    5436    5436       0    5438    5439
    5440    5441    5442    5443    5444    5445    5446    5447    5448    5449
    5450    5451    5452    5453    5454    5439    5440    5441    5442    5443
    5444    5445    5446    5447    5448    5455    5440    5441    5442    5443
    5444    5445    5446    5447    5449    5450    5451    5455    5456    5441
    5442    5443    5444    5445    5446    5450    5452    5453    5454    5456
    5457    5458    5459    5442    5443    5447    5448    5449    5455    5447
    5448    5444    5447    5448    5449    5450    5451    5455    5445    5447
    5449    5450    5451    5452    5456    5446    5450    5451    5452    5453
    5454    5456    5457    5458    5460    5461    5462    5450    5452    5453
    5454    5457    5459    5460    5448    5449    5455    5455    5455    5451
    5452    5456    5457    5458    5456    5453    5456    5457    5458    5459
    5460    5461    5462    5463    5464    5465    5454    5457    5458    5459
    5460    5463    5464    5457    5459       0       0    5458    5459    5460
    5461    5462    5463    5464    5466    5467    5468    5460    5461    5462
    5463    5465    5466    5460    5461    5463    5464    5465    5466    5467
    5468    5469    5470    5471    5462    5463    5464    5465    5466    5469
    5470    5463    5465    5464    5465    5466    5467    5468    5469    5470
    5472    5466    5467    5468    5469    5471    5472    5466    5467    5469
    5470    5471    5472    5468    5469    5470    5471    5472    5469    5471
    5470    5471    5472    5472    5472       0    5474    5475    5476    5477
    5478    5479    5480    5481    5482    5483    5484    5485    5486    5487
    5488    5489    5490    5475    5476    5477    5478    5479    5480    5481
    5482    5483    5484    5491    5476    5477    5478    5479    5480    5481
    5482    5483    5485    5486    5487    5491    5492    5477    5478    5479
    5480    5481    5482    5486    5488    5489    5490    5492    5493    5494
    5495    5478    5479    5483    5484    5485    5491    5483    5484    5480
    5483    5484    5485    5486    5487    5491    5481    5483    5485    5486
    5487    5488    5492    5482    5486    5487    5488    5489    5490    5492
    5493    5494    5496    5497    5498    5486    5488    5489    5490    5493
    5495    5496    5484    5485    5491    5491    5491    5487    5488    5492
    5493    5494    5492    5489    5492    5493    5494    5495    5496    5497
    5498    5499    5500    5501    5490    5493    5494    5495    5496    5499
    5500    5493    5495       0       0    5494    5495    5496    5497    5498
    5499    5500    5502    5503    5504    5496    5497    5498    5499    5501
    5502    5496    5497    5499    5500    5501    5502    5503    5504    5505
    5506    5507    5498    5499    5500    5501    5502    5505    5506    5499
    5501    5500    5501    5502    5503    5504    5505    5506    5508    5502
    5503    5504    5505    5507    5508    5502    5503    5505    5506    5507
    5508    5504    5505    5506    5507    5508    5505    5507    5506    5507
    5508    5508    5508       0    5510    5511    5512    5513    5514    5515
    5516    5517    5518    5519    5520    5521    5522    5523    5524    5525
    5526    5511    5512    5513    5514    5515    5516    5517    5518    5519
    5520    5527    5512    5513    5514    5515    5516    5517    5518    5519
    5521    5522    5523    5527    5528    5513    5514    5515    5516    5517
    5518    5522    5524    5525    5526    5528    5529    5530    5531    5514
    5515    5519    5520    5521    5527    5519    5520    5516    5519    5520
    5521    5522    5523    5527    5517    5519    5521    5522    5523    5524
    5528    5518    5522    5523    5524    5525    5526    5528    5529    5530
    5532    5533    5534    5522    5524    5525    5526    5529    5531    5532
    5520    5521    5527    5527    5527    5523    5524    5528    5529    5530
    5528    5525    5528    5529    5530    5531    5532    5533    5534    5535
    5536    5537    5526    5529    5530    5531    5532    5535    5536    5529
    5531       0       0    5530    5531    5532    5533    5534    5535    5536
    5538    5539    5540    5532    5533    5534    5535    5537    5538    5532
    5533    5535    5536    5537    5538    5539    5540    5541    5542    5543
    5534    5535    5536    5537    5538    5541    5542    5535    5537    5536
    5537    5538    5539    5540    5541    5542    5544    5538    5539    5540
    5541    5543    5544    5538    5539    5541    5542    5543    5544    5540
    5541    5542    5543    5544    5541    5543    5542    5543    5544    5544
    5544       0    5546    5547    5548    5549    5550    5551    5552    5553
    5554    5555    5556    5557    5558    5559    5560    5561    5562    5547
    5548    5549    5550    5551    5552    5553    5554    5555    5556    5563
    5548    5549    5550    5551    5552    5553    5554    5555    5557    5558
    5559    5563    5564    5549    5550    5551    5552    5553    5554    5558
    5560    5561    5562    5564    5565    5566    5567    5550    5551    5555
    5556    5557    5563    5555    5556    5552    5555    5556    5557    5558
    5559    5563    5553    5555    5557    5558    5559    5560    5564    5554
    5558    5559    5560    5561    5562    5564    5565    5566    5568    5569
    5570    5558    5560    5561    5562    5565    5567    5568    5556    5557
    5563    5563    5563    5559    5560    5564    5565    5566    5564    5561
    5564    5565    5566    5567    5568    5569    5570    5571    5572    5573
    5562    5565    5566    5567    5568    5571    5572    5565    5567       0
       0    5566    5567    5568    5569    5570    5571    5572    5574    5575
    5576    5568    5569    5570    5571    5573    5574    5568    5569    5571
    5572    5573    5574    5575    5576    5577    5578    5579    5570    5571
    5572    5573    5574    5577    5578    5571    5573    5572    5573    5574
    5575    5576    5577    5578    5580    5574    5575    5576    5577    5579
    5580    5574    5575    5577    5578    5579    5580    5576    5577    5578
    5579    5580    5577    5579    5578    5579    5580    5580    5580       0
    5582    5583    5584    5585    5586    5587    5588    5589    5590    5591
    5592    5593    5594    5595    5596    5597    5598    5583    5584    5585
    5586    5587    5588    5589    5590    5591    5592    5599    5584    5585
    5586    5587    5588    5589    5590    5591    5593    5594    5595    5599
    5600    5585    5586    5587    5588    5589    5590    5594    5596    5597
    5598    5600    5601    5602    5603    5586    5587    5591    5592    5593
    5599    5591    5592    5588    5591    5592    5593    5594    5595    5599
    5589    5591    5593    5594    5595    5596    5600    5590    5594    5595
    5596    5597    5598    5600    5601    5602    5604    5605    5606    5594
    5596    5597    5598    5601    5603    5604    5592    5593    5599    5599
    5599    5595    5596    5600    5601    5602    5600    5597    5600    5601
    5602    5603    5604    5605    5606    5607    5608    5609    5598    5601
    5602    5603    5604    5607    5608    5601    5603       0       0    5602
    5603    5604    5605    5606    5607    5608    5610    5611    5612    5604
    5605    5606    5607    5609    5610    5604    5605    5607    5608    5609
    5610    5611    5612    5613    5614    5615    5606    5607    5608    5609
    5610    5613    5614    5607    5609    5608    5609    5610    5611    5612
    5613    5614    5616    5610    5611    5612    5613    5615    5616    5610
    5611    5613    5614    5615    5616    5612    5613    5614    5615    5616
    5613    5615    5614    5615    5616    5616    5616       0    5618    5619
    5620    5621    5622    5623    5624    5625    5626    5627    5628    5629
    5630    5631    5632    5633    5634    5619    5620    5621    5622    5623
    5624    5625    5626    5627    5628    5635    5620    5621    5622    5623
    5624    5625    5626    5627    5629    5630    5631    5635    5636    5621
    5622    5623    5624    5625    5626    5630    5632    5633    5634    5636
    5637    5638    5639    5622    5623    5627    5628    5629    5635    5627
    5628    5624    5627    5628    5629    5630    5631    5635    5625    5627
    5629    5630    5631    5632    5636    5626    5630    5631    5632    5633
    5634    5636    5637    5638    5640    5641    5642    5630    5632    5633
    5634    5637    5639    5640    5628    5629    5635    5635    5635    5631
    5632    5636    5637    5638    5636    5633    5636    5637    5638    5639
    5640    5641    5642    5643    5644    5645    5634    5637    5638    5639
    5640    5643    5644    5637    5639       0       0    5638    5639    5640
    5641    5642    5643    5644    5646    5647    5648    5640    5641    5642
    5643    5645    5646    5640    5641    5643    5644    5645    5646    5647
    5648    5649    5650    5651    5642    5643    5644    5645    5646    5649
    5650    5643    5645    5644    5645    5646    5647    5648    5649    5650
    5652    5646    5647    5648    5649    5651    5652    5646    5647    5649
    5650    5651    5652    5648    5649    5650    5651    5652    5649    5651
    5650    5651    5652    5652    5652       0    5654    5655    5656    5657
    5658    5659    5660    5661    5662    5663    5664    5665    5666    5667
    5668    5669    5670    5655    5656    5657    5658    5659    5660    5661
    5662    5663    5664    5671    5656    5657    5658    5659    5660    5661
    5662    5663    5665    5666    5667    5671    5672    5657    5658    5659
    5660    5661    5662    5666    5668    5669    5670    5672    5673    5674
    5675    5658    5659    5663    5664    5665    5671    5663    5664    5660
    5663    5664    5665    5666    5667    5671    5661    5663    5665    5666
    5667    5668    5672    5662    5666    5667    5668    5669    5670    5672
    5673    5674    5676    5677    5678    5666    5668    5669    5670    5673
    5675    5676    5664    5665    5671    5671    5671    5667    5668    5672
    5673    5674    5672    5669    5672    5673    5674    5675    5676    5677
    5678    5679    5680    5681    5670    5673    5674    5675    5676    5679
    5680    5673    5675       0       0    5674    5675    5676    5677    5678
    5679    5680    5682    5683    5684    5676    5677    5678    5679    5681
    5682    5676    5677    5679    5680    5681    5682    5683    5684    5685
    5686    5687    5678    5679    5680    5681    5682    5685    5686    5679
    5681    5680    5681    5682    5683    5684    5685    5686    5688    5682
    5683    5684    5685    5687    5688    5682    5683    5685    5686    5687
    5688    5684    5685    5686    5687    5688    5685    5687    5686    5687
    5688    5688    5688       0    5690    5691    5692    5693    5694    5695
    5696    5697    5698    5699    5700    5701    5702    5703    5704    5705
    5706    5691    5692    5693    5694    5695    5696    5697    5698    5699
    5700    5707    5692    5693    5694    5695    5696    5697    5698    5699
    5701    5702    5703    5707    5708    5693    5694    5695    5696    5697
    5698    5702    5704    5705    5706    5708    5709    5710    5711    5694
    5695    5699    5700    5701    5707    5699    5700    5696    5699    5700
    5701    5702    5703    5707    5697    5699    5701    5702    5703    5704
    5708    5698    5702    5703    5704    5705    5706    5708    5709    5710
    5712    5713    5714    5702    5704    5705    5706    5709    5711    5712
    5700    5701    5707    5707    5707    5703    5704    5708    5709    5710
    5708    5705    5708    5709    5710    5711    5712    5713    5714    5715
    5716    5717    5706    5709    5710    5711    5712    5715    5716    5709
    5711       0       0    5710    5711    5712    5713    5714    5715    5716
    5718    5719    5720    5712    5713    5714    5715    5717    5718    5712
    5713    5715    5716    5717    5718    5719    5720    5721    5722    5723
    5714    5715    5716    5717    5718    5721    5722    5715    5717    5716
    5717    5718    5719    5720    5721    5722    5724    5718    5719    5720
    5721    5723    5724    5718    5719    5721    5722    5723    5724    5720
    5721    5722    5723    5724    5721    5723    5722    5723    5724    5724
    5724       0    5726    5727    5728    5729    5730    5731    5732    5733
    5734    5735    5736    5737    5738    5739    5740    5741    5742    5727
    5728    5729    5730    5731    5732    5733    5734    5735    5736    5743
    5728    5729    5730    5731    5732    5733    5734    5735    5737    5738
    5739    5743    5744    5729    5730    5731    5732    5733    5734    5738
    5740    5741    5742    5744    5745    5746    5747    5730    5731    5735
    5736    5737    5743    5735    5736    5732    5735    5736    5737    5738
    5739    5743    5733    5735    5737    5738    5739    5740    5744    5734
    5738    5739    5740    5741    5742    5744    5745    5746    5748    5749
    5750    5738    5740    5741    5742    5745    5747    5748    5736    5737
    5743    5743    5743    5739    5740    5744    5745    5746    5744    5741
    5744    5745    5746    5747    5748    5749    5750    5751    5752    5753
    5742    5745    5746    5747    5748    5751    5752    5745    5747       0
       0    5746    5747    5748    5749    5750    5751    5752    5754    5755
    5756    5748    5749    5750    5751    5753    5754    5748    5749    5751
    5752    5753    5754    5755    5756    5757    5758    5759    5750    5751
    5752    5753    5754    5757    5758    5751    5753    5752    5753    5754
    5755    5756    5757    5758    5760    5754    5755    5756    5757    5759
    5760    5754    5755    5757    5758    5759    5760    5756    5757    5758
    5759    5760    5757    5759    5758    5759    5760    5760    5760       0
    5762    5763    5764    5765    5766    5767    5768    5769    5770    5771
    5772    5773    5774    5775    5776    5777    5778    5763    5764    5765
    5766    5767    5768    5769    5770    5771    5772    5779    5764    5765
    5766    5767    5768    5769    5770    5771    5773    5774    5775    5779
    5780    5765    5766    5767    5768    5769    5770    5774    5776    5777
    5778    5780    5781    5782    5783    5766    5767    5771    5772    5773
    5779    5771    5772    5768    5771    5772    5773    5774    5775    5779
    5769    5771    5773    5774    5775    5776    5780    5770    5774    5775
    5776    5777    5778    5780    5781    5782    5784    5785    5786    5774
    5776    5777    5778    5781    5783    5784    5772    5773    5779    5779
    5779    5775    5776    5780    5781    5782    5780    5777    5780    5781
    5782    5783    5784    5785    5786    5787    5788    5789    5778    5781
    5782    5783    5784    5787    5788    5781    5783       0       0    5782
    5783    5784    5785    5786    5787    5788    5790    5791    5792    5784
    5785    5786    5787    5789    5790    5784    5785    5787    5788    5789
    5790    5791    5792    5793    5794    5795    5786    5787    5788    5789
    5790    5793    5794    5787    5789    5788    5789    5790    5791    5792
    5793    5794    5796    5790    5791    5792    5793    5795    5796    5790
    5791    5793    5794    5795    5796    5792    5793    5794    5795    5796
    5793    5795    5794    5795    5796    5796    5796       0    5798    5799
    5800    5801    5802    5803    5804    5805    5806    5807    5808    5809
    5810    5811    5812    5813    5814    5799    5800    5801    5802    5803
    5804    5805    5806    5807    5808    5815    5800    5801    5802    5803
    5804    5805    5806    5807    5809    5810    5811    5815    5816    5801
    5802    5803    5804    5805    5806    5810    5812    5813    5814    5816
    5817    5818    5819    5802    5803    5807    5808    5809    5815    5807
    5808    5804    5807    5808    5809    5810    5811    5815    5805    5807
    5809    5810    5811    5812    5816    5806    5810    5811    5812    5813
    5814    5816    5817    5818    5820    5821    5822    5810    5812    5813
    5814    5817    5819    5820    5808    5809    5815    5815    5815    5811
    5812    5816    5817    5818    5816    5813    5816    5817    5818    5819
    5820    5821    5822    5823    5824    5825    5814    5817    5818    5819
    5820    5823    5824    5817    5819       0       0    5818    5819    5820
    5821    5822    5823    5824    5826    5827    5828    5820    5821    5822
    5823    5825    5826    5820    5821    5823    5824    5825    5826    5827
    5828    5829    5830    5831    5822    5823    5824    5825    5826    5829
    5830    5823    5825    5824    5825    5826    5827    5828    5829    5830
    5832    5826    5827    5828    5829    5831    5832    5826    5827    5829
    5830    5831    5832    5828    5829    5830    5831    5832    5829    5831
    5830    5831    5832    5832    5832       0    5834    5835    5836    5837
    5838    5839    5840    5841    5842    5843    5844    5845    5846    5847
    5848    5849    5850    5835    5836    5837    5838    5839    5840    5841
    5842    5843    5844    5851    5836    5837    5838    5839    5840    5841
    5842    5843    5845    5846    5847    5851    5852    5837    5838    5839
    5840    5841    5842    5846    5848    5849    5850    5852    5853    5854
    5855    5838    5839    5843    5844    5845    5851    5843    5844    5840
    5843    5844    5845    5846    5847    5851    5841    5843    5845    5846
    5847    5848    5852    5842    5846    5847    5848    5849    5850    5852
    5853    5854    5856    5857    5858    5846    5848    5849    5850    5853
    5855    5856    5844    5845    5851    5851    5851    5847    5848    5852
    5853    5854    5852    5849    5852    5853    5854    5855    5856    5857
    5858    5859    5860    5861    5850    5853    5854    5855    5856    5859
    5860    5853    5855       0       0    5854    5855    5856    5857    5858
    5859    5860    5862    5863    5864    5856    5857    5858    5859    5861
    5862    5856    5857    5859    5860    5861    5862    5863    5864    5865
    5866    5867    5858    5859    5860    5861    5862    5865    5866    5859
    5861    5860    5861    5862    5863    5864    5865    5866    5868    5862
    5863    5864    5865    5867    5868    5862    5863    5865    5866    5867
    5868    5864    5865    5866    5867    5868    5865    5867    5866    5867
    5868    5868    5868       0    5870    5871    5872    5873    5874    5875
    5876    5877    5878    5879    5880    5881    5882    5883    5884    5885
    5886    5871    5872    5873    5874    5875    5876    5877    5878    5879
    5880    5887    5872    5873    5874    5875    5876    5877    5878    5879
    5881    5882    5883    5887    5888    5873    5874    5875    5876    5877
    5878    5882    5884    5885    5886    5888    5889    5890    5891    5874
    5875    5879    5880    5881    5887    5879    5880    5876    5879    5880
    5881    5882    5883    5887    5877    5879    5881    5882    5883    5884
    5888    5878    5882    5883    5884    5885    5886    5888    5889    5890
    5892    5893    5894    5882    5884    5885    5886    5889    5891    5892
    5880    5881    5887    5887    5887    5883    5884    5888    5889    5890
    5888    5885    5888    5889    5890    5891    5892    5893    5894    5895
    5896    5897    5886    5889    5890    5891    5892    5895    5896    5889
    5891       0       0    5890    5891    5892    5893    5894    5895    5896
    5898    5899    5900    5892    5893    5894    5895    5897    5898    5892
    5893    5895    5896    5897    5898    5899    5900    5901    5902    5903
    5894    5895    5896    5897    5898    5901    5902    5895    5897    5896
    5897    5898    5899    5900    5901    5902    5904    5898    5899    5900
    5901    5903    5904    5898    5899    5901    5902    5903    5904    5900
    5901    5902    5903    5904    5901    5903    5902    5903    5904    5904
    5904       0    5906    5907    5908    5909    5910    5911    5912    5913
    5914    5915    5916    5917    5918    5919    5920    5921    5922    5907
    5908    5909    5910    5911    5912    5913    5914    5915    5916    5923
    5908    5909    5910    5911    5912    5913    5914    5915    5917    5918
    5919    5923    5924    5909    5910    5911    5912    5913    5914    5918
    5920    5921    5922    5924    5925    5926    5927    5910    5911    5915
    5916    5917    5923    5915    5916    5912    5915    5916    5917    5918
    5919    5923    5913    5915    5917    5918    5919    5920    5924    5914
    5918    5919    5920    5921    5922    5924    5925    5926    5928    5929
    5930    5918    5920    5921    5922    5925    5927    5928    5916    5917
    5923    5923    5923    5919    5920    5924    5925    5926    5924    5921
    5924    5925    5926    5927    5928    5929    5930    5931    5932    5933
    5922    5925    5926    5927    5928    5931    5932    5925    5927       0
       0    5926    5927    5928    5929    5930    5931    5932    5934    5935
    5936    5928    5929    5930    5931    5933    5934    5928    5929    5931
    5932    5933    5934    5935    5936    5937    5938    5939    5930    5931
    5932    5933    5934    5937    5938    5931    5933    5932    5933    5934
    5935    5936    5937    5938    5940    5934    5935    5936    5937    5939
    5940    5934    5935    5937    5938    5939    5940    5936    5937    5938
    5939    5940    5937    5939    5938    5939    5940    5940    5940       0
    5942    5943    5944    5945    5946    5947    5948    5949    5950    5951
    5952    5953    5954    5955    5956    5957    5958    5943    5944    5945
    5946    5947    5948    5949    5950    5951    5952    5959    5944    5945
    5946    5947    5948    5949    5950    5951    5953    5954    5955    5959
    5960    5945    5946    5947    5948    5949    5950    5954    5956    5957
    5958    5960    5961    5962    5963    5946    5947    5951    5952    5953
    5959    5951    5952    5948    5951    5952    5953    5954    5955    5959
    5949    5951    5953    5954    5955    5956    5960    5950    5954    5955
    5956    5957    5958    5960    5961    5962    5964    5965    5966    5954
    5956    5957    5958    5961    5963    5964    5952    5953    5959    5959
    5959    5955    5956    5960    5961    5962    5960    5957    5960    5961
    5962    5963    5964    5965    5966    5967    5968    5969    5958    5961
    5962    5963    5964    5967    5968    5961    5963       0       0    5962
    5963    5964    5965    5966    5967    5968    5970    5971    5972    5964
    5965    5966    5967    5969    5970    5964    5965    5967    5968    5969
    5970    5971    5972    5973    5974    5975    5966    5967    5968    5969
    5970    5973    5974    5967    5969    5968    5969    5970    5971    5972
    5973    5974    5976    5970    5971    5972    5973    5975    5976    5970
    5971    5973    5974    5975    5976    5972    5973    5974    5975    5976
    5973    5975    5974    5975    5976    5976    5976       0    5978    5979
    5980    5981    5982    5983    5984    5985    5986    5987    5988    5989
    5990    5991    5992    5993    5994    5979    5980    5981    5982    5983
    5984    5985    5986    5987    5988    5995    5980    5981    5982    5983
    5984    5985    5986    5987    5989    5990    5991    5995    5996    5981
    5982    5983    5984    5985    5986    5990    5992    5993    5994    5996
    5997    5998    5999    5982    5983    5987    5988    5989    5995    5987
    5988    5984    5987    5988    5989    5990    5991    5995    5985    5987
    5989    5990    5991    5992    5996    5986    5990    5991    5992    5993
    5994    5996    5997    5998    6000    6001    6002    5990    5992    5993
    5994    5997    5999    6000    5988    5989    5995    5995    5995    5991
    5992    5996    5997    5998    5996    5993    5996    5997    5998    5999
    6000    6001    6002    6003    6004    6005    5994    5997    5998    5999
    6000    6003    6004    5997    5999       0       0    5998    5999    6000
    6001    6002    6003    6004    6006    6007    6008    6000    6001    6002
    6003    6005    6006    6000    6001    6003    6004    6005    6006    6007
    6008    6009    6010    6011    6002    6003    6004    6005    6006    6009
    6010    6003    6005    6004    6005    6006    6007    6008    6009    6010
    6012    6006    6007    6008    6009    6011    6012    6006    6007    6009
    6010    6011    6012    6008    6009    6010    6011    6012    6009    6011
    6010    6011    6012    6012    6012       0    6014    6015    6016    6017
    6018    6019    6020    6021    6022    6023    6024    6025    6026    6027
    6028    6029    6030    6015    6016    6017    6018    6019    6020    6021
    6022    6023    6024    6031    6016    6017    6018    6019    6020    6021
    6022    6023    6025    6026    6027    6031    6032    6017    6018    6019
    6020    6021    6022    6026    6028    6029    6030    6032    6033    6034
    6035    6018    6019    6023    6024    6025    6031    6023    6024    6020
    6023    6024    6025    6026    6027    6031    6021    6023    6025    6026
    6027    6028    6032    6022    6026    6027    6028    6029    6030    6032
    6033    6034    6036    6037    6038    6026    6028    6029    6030    6033
    6035    6036    6024    6025    6031    6031    6031    6027    6028    6032
    6033    6034    6032    6029    6032    6033    6034    6035    6036    6037
    6038    6039    6040    6041    6030    6033    6034    6035    6036    6039
    6040    6033    6035       0       0    6034    6035    6036    6037    6038
    6039    6040    6042    6043    6044    6036    6037    6038    6039    6041
    6042    6036    6037    6039    6040    6041    6042    6043    6044    6045
    6046    6047    6038    6039    6040    6041    6042    6045    6046    6039
    6041    6040    6041    6042    6043    6044    6045    6046    6048    6042
    6043    6044    6045    6047    6048    6042    6043    6045    6046    6047
    6048    6044    6045    6046    6047    6048    6045    6047    6046    6047
    6048    6048    6048       0    6050    6051    6052    6053    6054    6055
    6056    6057    6058    6059    6060    6061    6062    6063    6064    6065
    6066    6051    6052    6053    6054    6055    6056    6057    6058    6059
    6060    6067    6052    6053    6054    6055    6056    6057    6058    6059
    6061    6062    6063    6067    6068    6053    6054    6055    6056    6057
    6058    6062    6064    6065    6066    6068    6069    6070    6071    6054
    6055    6059    6060    6061    6067    6059    6060    6056    6059    6060
    6061    6062    6063    6067    6057    6059    6061    6062    6063    6064
    6068    6058    6062    6063    6064    6065    6066    6068    6069    6070
    6072    6073    6074    6062    6064    6065    6066    6069    6071    6072
    6060    6061    6067    6067    6067    6063    6064    6068    6069    6070
    6068    6065    6068    6069    6070    6071    6072    6073    6074    6075
    6076    6077    6066    6069    6070    6071    6072    6075    6076    6069
    6071       0       0    6070    6071    6072    6073    6074    6075    6076
    6078    6079    6080    6072    6073    6074    6075    6077    6078    6072
    6073    6075    6076    6077    6078    6079    6080    6081    6082    6083
    6074    6075    6076    6077    6078    6081    6082    6075    6077    6076
    6077    6078    6079    6080    6081    6082    6084    6078    6079    6080
    6081    6083    6084    6078    6079    6081    6082    6083    6084    6080
    6081    6082    6083    6084    6081    6083    6082    6083    6084    6084
    6084       0    6086    6087    6088    6089    6090    6091    6092    6093
    6094    6095    6096    6097    6098    6099    6100    6101    6102    6087
    6088    6089    6090    6091    6092    6093    6094    6095    6096    6103
    6088    6089    6090    6091    6092    6093    6094    6095    6097    6098
    6099    6103    6104    6089    6090    6091    6092    6093    6094    6098
    6100    6101    6102    6104    6105    6106    6107    6090    6091    6095
    6096    6097    6103    6095    6096    6092    6095    6096    6097    6098
    6099    6103    6093    6095    6097    6098    6099    6100    6104    6094
    6098    6099    6100    6101    6102    6104    6105    6106    6108    6109
    6110    6098    6100    6101    6102    6105    6107    6108    6096    6097
    6103    6103    6103    6099    6100    6104    6105    6106    6104    6101
    6104    6105    6106    6107    6108    6109    6110    6111    6112    6113
    6102    6105    6106    6107    6108    6111    6112    6105    6107       0
       0    6106    6107    6108    6109    6110    6111    6112    6114    6115
    6116    6108    6109    6110    6111    6113    6114    6108    6109    6111
    6112    6113    6114    6115    6116    6117    6118    6119    6110    6111
    6112    6113    6114    6117    6118    6111    6113    6112    6113    6114
    6115    6116    6117    6118    6120    6114    6115    6116    6117    6119
    6120    6114    6115    6117    6118    6119    6120    6116    6117    6118
    6119    6120    6117    6119    6118    6119    6120    6120    6120       0
    6122    6123    6124    6125    6126    6127    6128    6129    6130    6131
    6132    6133    6134    6135    6136    6137    6138    6123    6124    6125
    6126    6127    6128    6129    6130    6131    6132    6139    6124    6125
    6126    6127    6128    6129    6130    6131    6133    6134    6135    6139
    6140    6125    6126    6127    6128    6129    6130    6134    6136    6137
    6138    6140    6141    6142    6143    6126    6127    6131    6132    6133
    6139    6131    6132    6128    6131    6132    6133    6134    6135    6139
    6129    6131    6133    6134    6135    6136    6140    6130    6134    6135
    6136    6137    6138    6140    6141    6142    6144    6145    6146    6134
    6136    6137    6138    6141    6143    6144    6132    6133    6139    6139
    6139    6135    6136    6140    6141    6142    6140    6137    6140    6141
    6142    6143    6144    6145    6146    6147    6148    6149    6138    6141
    6142    6143    6144    6147    6148    6141    6143       0       0    6142
    6143    6144    6145    6146    6147    6148    6150    6151    6152    6144
    6145    6146    6147    6149    6150    6144    6145    6147    6148    6149
    6150    6151    6152    6153    6154    6155    6146    6147    6148    6149
    6150    6153    6154    6147    6149    6148    6149    6150    6151    6152
    6153    6154    6156    6150    6151    6152    6153    6155    6156    6150
    6151    6153    6154    6155    6156    6152    6153    6154    6155    6156
    6153    6155    6154    6155    6156    6156    6156       0    6158    6159
    6160    6161    6162    6163    6164    6165    6166    6167    6168    6169
    6170    6171    6172    6173    6174    6159    6160    6161    6162    6163
    6164    6165    6166    6167    6168    6175    6160    6161    6162    6163
    6164    6165    6166    6167    6169    6170    6171    6175    6176    6161
    6162    6163    6164    6165    6166    6170    6172    6173    6174    6176
    6177    6178    6179    6162    6163    6167    6168    6169    6175    6167
    6168    6164    6167    6168    6169    6170    6171    6175    6165    6167
    6169    6170    6171    6172    6176    6166    6170    6171    6172    6173
    6174    6176    6177    6178    6180    6181    6182    6170    6172    6173
    6174    6177    6179    6180    6168    6169    6175    6175    6175    6171
    6172    6176    6177    6178    6176    6173    6176    6177    6178    6179
    6180    6181    6182    6183    6184    6185    6174    6177    6178    6179
    6180    6183    6184    6177    6179       0       0    6178    6179    6180
    6181    6182    6183    6184    6186    6187    6188    6180    6181    6182
    6183    6185    6186    6180    6181    6183    6184    6185    6186    6187
    6188    6189    6190    6191    6182    6183    6184    6185    6186    6189
    6190    6183    6185    6184    6185    6186    6187    6188    6189    6190
    6192    6186    6187    6188    6189    6191    6192    6186    6187    6189
    6190    6191    6192    6188    6189    6190    6191    6192    6189    6191
    6190    6191    6192    6192    6192       0    6194    6195    6196    6197
    6198    6199    6200    6201    6202    6203    6204    6205    6206    6207
    6208    6209    6210    6195    6196    6197    6198    6199    6200    6201
    6202    6203    6204    6211    6196    6197    6198    6199    6200    6201
    6202    6203    6205    6206    6207    6211    6212    6197    6198    6199
    6200    6201    6202    6206    6208    6209    6210    6212    6213    6214
    6215    6198    6199    6203    6204    6205    6211    6203    6204    6200
    6203    6204    6205    6206    6207    6211    6201    6203    6205    6206
    6207    6208    6212    6202    6206    6207    6208    6209    6210    6212
    6213    6214    6216    6217    6218    6206    6208    6209    6210    6213
    6215    6216    6204    6205    6211    6211    6211    6207    6208    6212
    6213    6214    6212    6209    6212    6213    6214    6215    6216    6217
    6218    6219    6220    6221    6210    6213    6214    6215    6216    6219
    6220    6213    6215       0       0    6214    6215    6216    6217    6218
    6219    6220    6222    6223    6224    6216    6217    6218    6219    6221
    6222    6216    6217    6219    6220    6221    6222    6223    6224    6225
    6226    6227    6218    6219    6220    6221    6222    6225    6226    6219
    6221    6220    6221    6222    6223    6224    6225    6226    6228    6222
    6223    6224    6225    6227    6228    6222    6223    6225    6226    6227
    6228    6224    6225    6226    6227    6228    6225    6227    6226    6227
    6228    6228    6228       0    6230    6231    6232    6233    6234    6235
    6236    6237    6238    6239    6240    6241    6242    6243    6244    6245
    6246    6231    6232    6233    6234    6235    6236    6237    6238    6239
    6240    6247    6232    6233    6234    6235    6236    6237    6238    6239
    6241    6242    6243    6247    6248    6233    6234    6235    6236    6237
    6238    6242    6244    6245    6246    6248    6249    6250    6251    6234
    6235    6239    6240    6241    6247    6239    6240    6236    6239    6240
    6241    6242    6243    6247    6237    6239    6241    6242    6243    6244
    6248    6238    6242    6243    6244    6245    6246    6248    6249    6250
    6252    6253    6254    6242    6244    6245    6246    6249    6251    6252
    6240    6241    6247    6247    6247    6243    6244    6248    6249    6250
    6248    6245    6248    6249    6250    6251    6252    6253    6254    6255
    6256    6257    6246    6249    6250    6251    6252    6255    6256    6249
    6251       0       0    6250    6251    6252    6253    6254    6255    6256
    6258    6259    6260    6252    6253    6254    6255    6257    6258    6252
    6253    6255    6256    6257    6258    6259    6260    6261    6262    6263
    6254    6255    6256    6257    6258    6261    6262    6255    6257    6256
    6257    6258    6259    6260    6261    6262    6264    6258    6259    6260
    6261    6263    6264    6258    6259    6261    6262    6263    6264    6260
    6261    6262    6263    6264    6261    6263    6262    6263    6264    6264
    6264       0    6266    6267    6268    6269    6270    6271    6272    6273
    6274    6275    6276    6277    6278    6279    6280    6281    6282    6267
    6268    6269    6270    6271    6272    6273    6274    6275    6276    6283
    6268    6269    6270    6271    6272    6273    6274    6275    6277    6278
    6279    6283    6284    6269    6270    6271    6272    6273    6274    6278
    6280    6281    6282    6284    6285    6286    6287    6270    6271    6275
    6276    6277    6283    6275    6276    6272    6275    6276    6277    6278
    6279    6283    6273    6275    6277    6278    6279    6280    6284    6274
    6278    6279    6280    6281    6282    6284    6285    6286    6288    6289
    6290    6278    6280    6281    6282    6285    6287    6288    6276    6277
    6283    6283    6283    6279    6280    6284    6285    6286    6284    6281
    6284    6285    6286    6287    6288    6289    6290    6291    6292    6293
    6282    6285    6286    6287    6288    6291    6292    6285    6287       0
       0    6286    6287    6288    6289    6290    6291    6292    6294    6295
    6296    6288    6289    6290    6291    6293    6294    6288    6289    6291
    6292    6293    6294    6295    6296    6297    6298    6299    6290    6291
    6292    6293    6294    6297    6298    6291    6293    6292    6293    6294
    6295    6296    6297    6298    6300    6294    6295    6296    6297    6299
    6300    6294    6295    6297    6298    6299    6300    6296    6297    6298
    6299    6300    6297    6299    6298    6299    6300    6300    6300       0
    6302    6303    6304    6305    6306    6307    6308    6309    6310    6311
    6312    6313    6314    6315    6316    6317    6318    6303    6304    6305
    6306    6307    6308    6309    6310    6311    6312    6319    6304    6305
    6306    6307    6308    6309    6310    6311    6313    6314    6315    6319
    6320    6305    6306    6307    6308    6309    6310    6314    6316    6317
    6318    6320    6321    6322    6323    6306    6307    6311    6312    6313
    6319    6311    6312    6308    6311    6312    6313    6314    6315    6319
    6309    6311    6313    6314    6315    6316    6320    6310    6314    6315
    6316    6317    6318    6320    6321    6322    6324    6325    6326    6314
    6316    6317    6318    6321    6323    6324    6312    6313    6319    6319
    6319    6315    6316    6320    6321    6322    6320    6317    6320    6321
    6322    6323    6324    6325    6326    6327    6328    6329    6318    6321
    6322    6323    6324    6327    6328    6321    6323       0       0    6322
    6323    6324    6325    6326    6327    6328    6330    6331    6332    6324
    6325    6326    6327    6329    6330    6324    6325    6327    6328    6329
    6330    6331    6332    6333    6334    6335    6326    6327    6328    6329
    6330    6333    6334    6327    6329    6328    6329    6330    6331    6332
    6333    6334    6336    6330    6331    6332    6333    6335    6336    6330
    6331    6333    6334    6335    6336    6332    6333    6334    6335    6336
    6333    6335    6334    6335    6336    6336    6336       0    6338    6339
    6340    6341    6342    6343    6344    6345    6346    6347    6348    6349
    6350    6351    6352    6353    6354    6339    6340    6341    6342    6343
    6344    6345    6346    6347    6348    6355    6340    6341    6342    6343
    6344    6345    6346    6347    6349    6350    6351    6355    6356    6341
    6342    6343    6344    6345    6346    6350    6352    6353    6354    6356
    6357    6358    6359    6342    6343    6347    6348    6349    6355    6347
    6348    6344    6347    6348    6349    6350    6351    6355    6345    6347
    6349    6350    6351    6352    6356    6346    6350    6351    6352    6353
    6354    6356    6357    6358    6360    6361    6362    6350    6352    6353
    6354    6357    6359    6360    6348    6349    6355    6355    6355    6351
    6352    6356    6357    6358    6356    6353    6356    6357    6358    6359
    6360    6361    6362    6363    6364    6365    6354    6357    6358    6359
    6360    6363    6364    6357    6359       0       0    6358    6359    6360
    6361    6362    6363    6364    6366    6367    6368    6360    6361    6362
    6363    6365    6366    6360    6361    6363    6364    6365    6366    6367
    6368    6369    6370    6371    6362    6363    6364    6365    6366    6369
    6370    6363    6365    6364    6365    6366    6367    6368    6369    6370
    6372    6366    6367    6368    6369    6371    6372    6366    6367    6369
    6370    6371    6372    6368    6369    6370    6371    6372    6369    6371
    6370    6371    6372    6372    6372       0    6374    6375    6376    6377
    6378    6379    6380    6381    6382    6383    6384    6385    6386    6387
    6388    6389    6390    6375    6376    6377    6378    6379    6380    6381
    6382    6383    6384    6391    6376    6377    6378    6379    6380    6381
    6382    6383    6385    6386    6387    6391    6392    6377    6378    6379
    6380    6381    6382    6386    6388    6389    6390    6392    6393    6394
    6395    6378    6379    6383    6384    6385    6391    6383    6384    6380
    6383    6384    6385    6386    6387    6391    6381    6383    6385    6386
    6387    6388    6392    6382    6386    6387    6388    6389    6390    6392
    6393    6394    6396    6397    6398    6386    6388    6389    6390    6393
    6395    6396    6384    6385    6391    6391    6391    6387    6388    6392
    6393    6394    6392    6389    6392    6393    6394    6395    6396    6397
    6398    6399    6400    6401    6390    6393    6394    6395    6396    6399
    6400    6393    6395       0       0    6394    6395    6396    6397    6398
    6399    6400    6402    6403    6404    6396    6397    6398    6399    6401
    6402    6396    6397    6399    6400    6401    6402    6403    6404    6405
    6406    6407    6398    6399    6400    6401    6402    6405    6406    6399
    6401    6400    6401    6402    6403    6404    6405    6406    6408    6402
    6403    6404    6405    6407    6408    6402    6403    6405    6406    6407
    6408    6404    6405    6406    6407    6408    6405    6407    6406    6407
    6408    6408    6408       0    6410    6411    6412    6413    6414    6415
    6416    6417    6418    6419    6420    6421    6422    6423    6424    6425
    6426    6411    6412    6413    6414    6415    6416    6417    6418    6419
    6420    6427    6412    6413    6414    6415    6416    6417    6418    6419
    6421    6422    6423    6427    6428    6413    6414    6415    6416    6417
    6418    6422    6424    6425    6426    6428    6429    6430    6431    6414
    6415    6419    6420    6421    6427    6419    6420    6416    6419    6420
    6421    6422    6423    6427    6417    6419    6421    6422    6423    6424
    6428    6418    6422    6423    6424    6425    6426    6428    6429    6430
    6432    6433    6434    6422    6424    6425    6426    6429    6431    6432
    6420    6421    6427    6427    6427    6423    6424    6428    6429    6430
    6428    6425    6428    6429    6430    6431    6432    6433    6434    6435
    6436    6437    6426    6429    6430    6431    6432    6435    6436    6429
    6431       0       0    6430    6431    6432    6433    6434    6435    6436
    6438    6439    6440    6432    6433    6434    6435    6437    6438    6432
    6433    6435    6436    6437    6438    6439    6440    6441    6442    6443
    6434    6435    6436    6437    6438    6441    6442    6435    6437    6436
    6437    6438    6439    6440    6441    6442    6444    6438    6439    6440
    6441    6443    6444    6438    6439    6441    6442    6443    6444    6440
    6441    6442    6443    6444    6441    6443    6442    6443    6444    6444
    6444       0    6446    6447    6448    6449    6450    6451    6452    6453
    6454    6455    6456    6457    6458    6459    6460    6461    6462    6447
    6448    6449    6450    6451    6452    6453    6454    6455    6456    6463
    6448    6449    6450    6451    6452    6453    6454    6455    6457    6458
    6459    6463    6464    6449    6450    6451    6452    6453    6454    6458
    6460    6461    6462    6464    6465    6466    6467    6450    6451    6455
    6456    6457    6463    6455    6456    6452    6455    6456    6457    6458
    6459    6463    6453    6455    6457    6458    6459    6460    6464    6454
    6458    6459    6460    6461    6462    6464    6465    6466    6468    6469
    6470    6458    6460    6461    6462    6465    6467    6468    6456    6457
    6463    6463    6463    6459    6460    6464    6465    6466    6464    6461
    6464    6465    6466    6467    6468    6469    6470    6471    6472    6473
    6462    6465    6466    6467    6468    6471    6472    6465    6467       0
       0    6466    6467    6468    6469    6470    6471    6472    6474    6475
    6476    6468    6469    6470    6471    6473    6474    6468    6469    6471
    6472    6473    6474    6475    6476    6477    6478    6479    6470    6471
    6472    6473    6474    6477    6478    6471    6473    6472    6473    6474
    6475    6476    6477    6478    6480    6474    6475    6476    6477    6479
    6480    6474    6475    6477    6478    6479    6480    6476    6477    6478
    6479    6480    6477    6479    6478    6479    6480    6480    6480       0
    6482    6483    6484    6485    6486    6487    6488    6489    6490    6491
    6492    6493    6494    6495    6496    6497    6498    6483    6484    6485
    6486    6487    6488    6489    6490    6491    6492    6499    6484    6485
    6486    6487    6488    6489    6490    6491    6493    6494    6495    6499
    6500    6485    6486    6487    6488    6489    6490    6494    6496    6497
    6498    6500    6501    6502    6503    6486    6487    6491    6492    6493
    6499    6491    6492    6488    6491    6492    6493    6494    6495    6499
    6489    6491    6493    6494    6495    6496    6500    6490    6494    6495
    6496    6497    6498    6500    6501    6502    6504    6505    6506    6494
    6496    6497    6498    6501    6503    6504    6492    6493    6499    6499
    6499    6495    6496    6500    6501    6502    6500    6497    6500    6501
    6502    6503    6504    6505    6506    6507    6508    6509    6498    6501
    6502    6503    6504    6507    6508    6501    6503       0       0    6502
    6503    6504    6505    6506    6507    6508    6510    6511    6512    6504
    6505    6506    6507    6509    6510    6504    6505    6507    6508    6509
    6510    6511    6512    6513    6514    6515    6506    6507    6508    6509
    6510    6513    6514    6507    6509    6508    6509    6510    6511    6512
    6513    6514    6516    6510    6511    6512    6513    6515    6516    6510
    6511    6513    6514    6515    6516    6512    6513    6514    6515    6516
    6513    6515    6514    6515    6516    6516    6516       0    6518    6519
    6520    6521    6522    6523    6524    6525    6526    6527    6528    6529
    6530    6531    6532    6533    6534    6519    6520    6521    6522    6523
    6524    6525    6526    6527    6528    6535    6520    6521    6522    6523
    6524    6525    6526    6527    6529    6530    6531    6535    6536    6521
    6522    6523    6524    6525    6526    6530    6532    6533    6534    6536
    6537    6538    6539    6522    6523    6527    6528    6529    6535    6527
    6528    6524    6527    6528    6529    6530    6531    6535    6525    6527
    6529    6530    6531    6532    6536    6526    6530    6531    6532    6533
    6534    6536    6537    6538    6540    6541    6542    6530    6532    6533
    6534    6537    6539    6540    6528    6529    6535    6535    6535    6531
    6532    6536    6537    6538    6536    6533    6536    6537    6538    6539
    6540    6541    6542    6543    6544    6545    6534    6537    6538    6539
    6540    6543    6544    6537    6539       0       0    6538    6539    6540
    6541    6542    6543    6544    6546    6547    6548    6540    6541    6542
    6543    6545    6546    6540    6541    6543    6544    6545    6546    6547
    6548    6549    6550    6551    6542    6543    6544    6545    6546    6549
    6550    6543    6545    6544    6545    6546    6547    6548    6549    6550
    6552    6546    6547    6548    6549    6551    6552    6546    6547    6549
    6550    6551    6552    6548    6549    6550    6551    6552    6549    6551
    6550    6551    6552    6552    6552       0    6554    6555    6556    6557
    6558    6559    6560    6561    6562    6563    6564    6565    6566    6567
    6568    6569    6570    6555    6556    6557    6558    6559    6560    6561
    6562    6563    6564    6571    6556    6557    6558    6559    6560    6561
    6562    6563    6565    6566    6567    6571    6572    6557    6558    6559
    6560    6561    6562    6566    6568    6569    6570    6572    6573    6574
    6575    6558    6559    6563    6564    6565    6571    6563    6564    6560
    6563    6564    6565    6566    6567    6571    6561    6563    6565    6566
    6567    6568    6572    6562    6566    6567    6568    6569    6570    6572
    6573    6574    6576    6577    6578    6566    6568    6569    6570    6573
    6575    6576    6564    6565    6571    6571    6571    6567    6568    6572
    6573    6574    6572    6569    6572    6573    6574    6575    6576    6577
    6578    6579    6580    6581    6570    6573    6574    6575    6576    6579
    6580    6573    6575       0       0    6574    6575    6576    6577    6578
    6579    6580    6582    6583    6584    6576    6577    6578    6579    6581
    6582    6576    6577    6579    6580    6581    6582    6583    6584    6585
    6586    6587    6578    6579    6580    6581    6582    6585    6586    6579
    6581    6580    6581    6582    6583    6584    6585    6586    6588    6582
    6583    6584    6585    6587    6588    6582    6583    6585    6586    6587
    6588    6584    6585    6586    6587    6588    6585    6587    6586    6587
    6588    6588    6588       0    6590    6591    6592    6593    6594    6595
    6596    6597    6598    6599    6600    6601    6602    6603    6604    6605
    6606    6591    6592    6593    6594    6595    6596    6597    6598    6599
    6600    6607    6592    6593    6594    6595    6596    6597    6598    6599
    6601    6602    6603    6607    6608    6593    6594    6595    6596    6597
    6598    6602    6604    6605    6606    6608    6609    6610    6611    6594
    6595    6599    6600    6601    6607    6599    6600    6596    6599    6600
    6601    6602    6603    6607    6597    6599    6601    6602    6603    6604
    6608    6598    6602    6603    6604    6605    6606    6608    6609    6610
    6612    6613    6614    6602    6604    6605    6606    6609    6611    6612
    6600    6601    6607    6607    6607    6603    6604    6608    6609    6610
    6608    6605    6608    6609    6610    6611    6612    6613    6614    6615
    6616    6617    6606    6609    6610    6611    6612    6615    6616    6609
    6611       0       0    6610    6611    6612    6613    6614    6615    6616
    6618    6619    6620    6612    6613    6614    6615    6617    6618    6612
    6613    6615    6616    6617    6618    6619    6620    6621    6622    6623
    6614    6615    6616    6617    6618    6621    6622    6615    6617    6616
    6617    6618    6619    6620    6621    6622    6624    6618    6619    6620
    6621    6623    6624    6618    6619    6621    6622    6623    6624    6620
    6621    6622    6623    6624    6621    6623    6622    6623    6624    6624
    6624       0    6626    6627    6628    6629    6630    6631    6632    6633
    6634    6635    6636    6637    6638    6639    6640    6641    6642    6627
    6628    6629    6630    6631    6632    6633    6634    6635    6636    6643
    6628    6629    6630    6631    6632    6633    6634    6635    6637    6638
    6639    6643    6644    6629    6630    6631    6632    6633    6634    6638
    6640    6641    6642    6644    6645    6646    6647    6630    6631    6635
    6636    6637    6643    6635    6636    6632    6635    6636    6637    6638
    6639    6643    6633    6635    6637    6638    6639    6640    6644    6634
    6638    6639    6640    6641    6642    6644    6645    6646    6648    6649
    6650    6638    6640    6641    6642    6645    6647    6648    6636    6637
    6643    6643    6643    6639    6640    6644    6645    6646    6644    6641
    6644    6645    6646    6647    6648    6649    6650    6651    6652    6653
    6642    6645    6646    6647    6648    6651    6652    6645    6647       0
       0    6646    6647    6648    6649    6650    6651    6652    6654    6655
    6656    6648    6649    6650    6651    6653    6654    6648    6649    6651
    6652    6653    6654    6655    6656    6657    6658    6659    6650    6651
    6652    6653    6654    6657    6658    6651    6653    6652    6653    6654
    6655    6656    6657    6658    6660    6654    6655    6656    6657    6659
    6660    6654    6655    6657    6658    6659    6660    6656    6657    6658
    6659    6660    6657    6659    6658    6659    6660    6660    6660       0
    6662    6663    6664    6665    6666    6667    6668    6669    6670    6671
    6672    6673    6674    6675    6676    6677    6678    6663    6664    6665
    6666    6667    6668    6669    6670    6671    6672    6679    6664    6665
    6666    6667    6668    6669    6670    6671    6673    6674    6675    6679
    6680    6665    6666    6667    6668    6669    6670    6674    6676    6677
    6678    6680    6681    6682    6683    6666    6667    6671    6672    6673
    6679    6671    6672    6668    6671    6672    6673    6674    6675    6679
    6669    6671    6673    6674    6675    6676    6680    6670    6674    6675
    6676    6677    6678    6680    6681    6682    6684    6685    6686    6674
    6676    6677    6678    6681    6683    6684    6672    6673    6679    6679
    6679    6675    6676    6680    6681    6682    6680    6677    6680    6681
    6682    6683    6684    6685    6686    6687    6688    6689    6678    6681
    6682    6683    6684    6687    6688    6681    6683       0       0    6682
    6683    6684    6685    6686    6687    6688    6690    6691    6692    6684
    6685    6686    6687    6689    6690    6684    6685    6687    6688    6689
    6690    6691    6692    6693    6694    6695    6686    6687    6688    6689
    6690    6693    6694    6687    6689    6688    6689    6690    6691    6692
    6693    6694    6696    6690    6691    6692    6693    6695    6696    6690
    6691    6693    6694    6695    6696    6692    6693    6694    6695    6696
    6693    6695    6694    6695    6696    6696    6696       0    6698    6699
    6700    6701    6702    6703    6704    6705    6706    6707    6708    6709
    6710    6711    6712    6713    6714    6699    6700    6701    6702    6703
    6704    6705    6706    6707    6708    6715    6700    6701    6702    6703
    6704    6705    6706    6707    6709    6710    6711    6715    6716    6701
    6702    6703    6704    6705    6706    6710    6712    6713    6714    6716
    6717    6718    6719    6702    6703    6707    6708    6709    6715    6707
    6708    6704    6707    6708    6709    6710    6711    6715    6705    6707
    6709    6710    6711    6712    6716    6706    6710    6711    6712    6713
    6714    6716    6717    6718    6720    6721    6722    6710    6712    6713
    6714    6717    6719    6720    6708    6709    6715    6715    6715    6711
    6712    6716    6717    6718    6716    6713    6716    6717    6718    6719
    6720    6721    6722    6723    6724    6725    6714    6717    6718    6719
    6720    6723    6724    6717    6719       0       0    6718    6719    6720
    6721    6722    6723    6724    6726    6727    6728    6720    6721    6722
    6723    6725    6726    6720    6721    6723    6724    6725    6726    6727
    6728    6729    6730    6731    6722    6723    6724    6725    6726    6729
    6730    6723    6725    6724    6725    6726    6727    6728    6729    6730
    6732    6726    6727    6728    6729    6731    6732    6726    6727    6729
    6730    6731    6732    6728    6729    6730    6731    6732    6729    6731
    6730    6731    6732    6732    6732       0    6734    6735    6736    6737
    6738    6739    6740    6741    6742    6743    6744    6745    6746    6747
    6748    6749    6750    6735    6736    6737    6738    6739    6740    6741
    6742    6743    6744    6751    6736    6737    6738    6739    6740    6741
    6742    6743    6745    6746    6747    6751    6752    6737    6738    6739
    6740    6741    6742    6746    6748    6749    6750    6752    6753    6754
    6755    6738    6739    6743    6744    6745    6751    6743    6744    6740
    6743    6744    6745    6746    6747    6751    6741    6743    6745    6746
    6747    6748    6752    6742    6746    6747    6748    6749    6750    6752
    6753    6754    6756    6757    6758    6746    6748    6749    6750    6753
    6755    6756    6744    6745    6751    6751    6751    6747    6748    6752
    6753    6754    6752    6749    6752    6753    6754    6755    6756    6757
    6758    6759    6760    6761    6750    6753    6754    6755    6756    6759
    6760    6753    6755       0       0    6754    6755    6756    6757    6758
    6759    6760    6762    6763    6764    6756    6757    6758    6759    6761
    6762    6756    6757    6759    6760    6761    6762    6763    6764    6765
    6766    6767    6758    6759    6760    6761    6762    6765    6766    6759
    6761    6760    6761    6762    6763    6764    6765    6766    6768    6762
    6763    6764    6765    6767    6768    6762    6763    6765    6766    6767
    6768    6764    6765    6766    6767    6768    6765    6767    6766    6767
    6768    6768    6768       0    6770    6771    6772    6773    6774    6775
    6776    6777    6778    6779    6780    6781    6782    6783    6784    6785
    6786    6771    6772    6773    6774    6775    6776    6777    6778    6779
    6780    6787    6772    6773    6774    6775    6776    6777    6778    6779
    6781    6782    6783    6787    6788    6773    6774    6775    6776    6777
    6778    6782    6784    6785    6786    6788    6789    6790    6791    6774
    6775    6779    6780    6781    6787    6779    6780    6776    6779    6780
    6781    6782    6783    6787    6777    6779    6781    6782    6783    6784
    6788    6778    6782    6783    6784    6785    6786    6788    6789    6790
    6792    6793    6794    6782    6784    6785    6786    6789    6791    6792
    6780    6781    6787    6787    6787    6783    6784    6788    6789    6790
    6788    6785    6788    6789    6790    6791    6792    6793    6794    6795
    6796    6797    6786    6789    6790    6791    6792    6795    6796    6789
    6791       0       0    6790    6791    6792    6793    6794    6795    6796
    6798    6799    6800    6792    6793    6794    6795    6797    6798    6792
    6793    6795    6796    6797    6798    6799    6800    6801    6802    6803
    6794    6795    6796    6797    6798    6801    6802    6795    6797    6796
    6797    6798    6799    6800    6801    6802    6804    6798    6799    6800
    6801    6803    6804    6798    6799    6801    6802    6803    6804    6800
    6801    6802    6803    6804    6801    6803    6802    6803    6804    6804
    6804       0    6806    6807    6808    6809    6810    6811    6812    6813
    6814    6815    6816    6817    6818    6819    6820    6821    6822    6807
    6808    6809    6810    6811    6812    6813    6814    6815    6816    6823
    6808    6809    6810    6811    6812    6813    6814    6815    6817    6818
    6819    6823    6824    6809    6810    6811    6812    6813    6814    6818
    6820    6821    6822    6824    6825    6826    6827    6810    6811    6815
    6816    6817    6823    6815    6816    6812    6815    6816    6817    6818
    6819    6823    6813    6815    6817    6818    6819    6820    6824    6814
    6818    6819    6820    6821    6822    6824    6825    6826    6828    6829
    6830    6818    6820    6821    6822    6825    6827    6828    6816    6817
    6823    6823    6823    6819    6820    6824    6825    6826    6824    6821
    6824    6825    6826    6827    6828    6829    6830    6831    6832    6833
    6822    6825    6826    6827    6828    6831    6832    6825    6827       0
       0    6826    6827    6828    6829    6830    6831    6832    6834    6835
    6836    6828    6829    6830    6831    6833    6834    6828    6829    6831
    6832    6833    6834    6835    6836    6837    6838    6839    6830    6831
    6832    6833    6834    6837    6838    6831    6833    6832    6833    6834
    6835    6836    6837    6838    6840    6834    6835    6836    6837    6839
    6840    6834    6835    6837    6838    6839    6840    6836    6837    6838
    6839    6840    6837    6839    6838    6839    6840    6840    6840       0
    6842    6843    6844    6845    6846    6847    6848    6849    6850    6851
    6852    6853    6854    6855    6856    6857    6858    6843    6844    6845
    6846    6847    6848    6849    6850    6851    6852    6859    6844    6845
    6846    6847    6848    6849    6850    6851    6853    6854    6855    6859
    6860    6845    6846    6847    6848    6849    6850    6854    6856    6857
    6858    6860    6861    6862    6863    6846    6847    6851    6852    6853
    6859    6851    6852    6848    6851    6852    6853    6854    6855    6859
    6849    6851    6853    6854    6855    6856    6860    6850    6854    6855
    6856    6857    6858    6860    6861    6862    6864    6865    6866    6854
    6856    6857    6858    6861    6863    6864    6852    6853    6859    6859
    6859    6855    6856    6860    6861    6862    6860    6857    6860    6861
    6862    6863    6864    6865    6866    6867    6868    6869    6858    6861
    6862    6863    6864    6867    6868    6861    6863       0       0    6862
    6863    6864    6865    6866    6867    6868    6870    6871    6872    6864
    6865    6866    6867    6869    6870    6864    6865    6867    6868    6869
    6870    6871    6872    6873    6874    6875    6866    6867    6868    6869
    6870    6873    6874    6867    6869    6868    6869    6870    6871    6872
    6873    6874    6876    6870    6871    6872    6873    6875    6876    6870
    6871    6873    6874    6875    6876    6872    6873    6874    6875    6876
    6873    6875    6874    6875    6876    6876    6876       0    6878    6879
    6880    6881    6882    6883    6884    6885    6886    6887    6888    6889
    6890    6891    6892    6893    6894    6879    6880    6881    6882    6883
    6884    6885    6886    6887    6888    6895    6880    6881    6882    6883
    6884    6885    6886    6887    6889    6890    6891    6895    6896    6881
    6882    6883    6884    6885    6886    6890    6892    6893    6894    6896
    6897    6898    6899    6882    6883    6887    6888    6889    6895    6887
    6888    6884    6887    6888    6889    6890    6891    6895    6885    6887
    6889    6890    6891    6892    6896    6886    6890    6891    6892    6893
    6894    6896    6897    6898    6900    6901    6902    6890    6892    6893
    6894    6897    6899    6900    6888    6889    6895    6895    6895    6891
    6892    6896    6897    6898    6896    6893    6896    6897    6898    6899
    6900    6901    6902    6903    6904    6905    6894    6897    6898    6899
    6900    6903    6904    6897    6899       0       0    6898    6899    6900
    6901    6902    6903    6904    6906    6907    6908    6900    6901    6902
    6903    6905    6906    6900    6901    6903    6904    6905    6906    6907
    6908    6909    6910    6911    6902    6903    6904    6905    6906    6909
    6910    6903    6905    6904    6905    6906    6907    6908    6909    6910
    6912    6906    6907    6908    6909    6911    6912    6906    6907    6909
    6910    6911    6912    6908    6909    6910    6911    6912    6909    6911
    6910    6911    6912    6912    6912       0    6914    6915    6916    6917
    6918    6919    6920    6921    6922    6923    6924    6925    6926    6927
    6928    6929    6930    6915    6916    6917    6918    6919    6920    6921
    6922    6923    6924    6931    6916    6917    6918    6919    6920    6921
    6922    6923    6925    6926    6927    6931    6932    6917    6918    6919
    6920    6921    6922    6926    6928    6929    6930    6932    6933    6934
    6935    6918    6919    6923    6924    6925    6931    6923    6924    6920
    6923    6924    6925    6926    6927    6931    6921    6923    6925    6926
    6927    6928    6932    6922    6926    6927    6928    6929    6930    6932
    6933    6934    6936    6937    6938    6926    6928    6929    6930    6933
    6935    6936    6924    6925    6931    6931    6931    6927    6928    6932
    6933    6934    6932    6929    6932    6933    6934    6935    6936    6937
    6938    6939    6940    6941    6930    6933    6934    6935    6936    6939
    6940    6933    6935       0       0    6934    6935    6936    6937    6938
    6939    6940    6942    6943    6944    6936    6937    6938    6939    6941
    6942    6936    6937    6939    6940    6941    6942    6943    6944    6945
    6946    6947    6938    6939    6940    6941    6942    6945    6946    6939
    6941    6940    6941    6942    6943    6944    6945    6946    6948    6942
    6943    6944    6945    6947    6948    6942    6943    6945    6946    6947
    6948    6944    6945    6946    6947    6948    6945    6947    6946    6947
    6948    6948    6948       0    6950    6951    6952    6953    6954    6955
    6956    6957    6958    6959    6960    6961    6962    6963    6964    6965
    6966    6951    6952    6953    6954    6955    6956    6957    6958    6959
    6960    6967    6952    6953    6954    6955    6956    6957    6958    6959
    6961    6962    6963    6967    6968    6953    6954    6955    6956    6957
    6958    6962    6964    6965    6966    6968    6969    6970    6971    6954
    6955    6959    6960    6961    6967    6959    6960    6956    6959    6960
    6961    6962    6963    6967    6957    6959    6961    6962    6963    6964
    6968    6958    6962    6963    6964    6965    6966    6968    6969    6970
    6972    6973    6974    6962    6964    6965    6966    6969    6971    6972
    6960    6961    6967    6967    6967    6963    6964    6968    6969    6970
    6968    6965    6968    6969    6970    6971    6972    6973    6974    6975
    6976    6977    6966    6969    6970    6971    6972    6975    6976    6969
    6971       0       0    6970    6971    6972    6973    6974    6975    6976
    6978    6979    6980    6972    6973    6974    6975    6977    6978    6972
    6973    6975    6976    6977    6978    6979    6980    6981    6982    6983
    6974    6975    6976    6977    6978    6981    6982    6975    6977    6976
    6977    6978    6979    6980    6981    6982    6984    6978    6979    6980
    6981    6983    6984    6978    6979    6981    6982    6983    6984    6980
    6981    6982    6983    6984    6981    6983    6982    6983    6984    6984
    6984       0    6986    6987    6988    6989    6990    6991    6992    6993
    6994    6995    6996    6997    6998    6999    7000    7001    7002    6987
    6988    6989    6990    6991    6992    6993    6994    6995    6996    7003
    6988    6989    6990    6991    6992    6993    6994    6995    6997    6998
    6999    7003    7004    6989    6990    6991    6992    6993    6994    6998
    7000    7001    7002    7004    7005    7006    7007    6990    6991    6995
    6996    6997    7003    6995    6996    6992    6995    6996    6997    6998
    6999    7003    6993    6995    6997    6998    6999    7000    7004    6994
    6998    6999    7000    7001    7002    7004    7005    7006    7008    7009
    7010    6998    7000    7001    7002    7005    7007    7008    6996    6997
    7003    7003    7003    6999    7000    7004    7005    7006    7004    7001
    7004    7005    7006    7007    7008    7009    7010    7011    7012    7013
    7002    7005    7006    7007    7008    7011    7012    7005    7007       0
       0    7006    7007    7008    7009    7010    7011    7012    7014    7015
    7016    7008    7009    7010    7011    7013    7014    7008    7009    7011
    7012    7013    7014    7015    7016    7017    7018    7019    7010    7011
    7012    7013    7014    7017    7018    7011    7013    7012    7013    7014
    7015    7016    7017    7018    7020    7014    7015    7016    7017    7019
    7020    7014    7015    7017    7018    7019    7020    7016    7017    7018
    7019    7020    7017    7019    7018    7019    7020    7020    7020       0
    7022    7023    7024    7025    7026    7027    7028    7029    7030    7031
    7032    7033    7034    7035    7036    7037    7038    7023    7024    7025
    7026    7027    7028    7029    7030    7031    7032    7039    7024    7025
    7026    7027    7028    7029    7030    7031    7033    7034    7035    7039
    7040    7025    7026    7027    7028    7029    7030    7034    7036    7037
    7038    7040    7041    7042    7043    7026    7027    7031    7032    7033
    7039    7031    7032    7028    7031    7032    7033    7034    7035    7039
    7029    7031    7033    7034    7035    7036    7040    7030    7034    7035
    7036    7037    7038    7040    7041    7042    7044    7045    7046    7034
    7036    7037    7038    7041    7043    7044    7032    7033    7039    7039
    7039    7035    7036    7040    7041    7042    7040    7037    7040    7041
    7042    7043    7044    7045    7046    7047    7048    7049    7038    7041
    7042    7043    7044    7047    7048    7041    7043       0       0    7042
    7043    7044    7045    7046    7047    7048    7050    7051    7052    7044
    7045    7046    7047    7049    7050    7044    7045    7047    7048    7049
    7050    7051    7052    7053    7054    7055    7046    7047    7048    7049
    7050    7053    7054    7047    7049    7048    7049    7050    7051    7052
    7053    7054    7056    7050    7051    7052    7053    7055    7056    7050
    7051    7053    7054    7055    7056    7052    7053    7054    7055    7056
    7053    7055    7054    7055    7056    7056    7056       0    7058    7059
    7060    7061    7062    7063    7064    7065    7066    7067    7068    7069
    7070    7071    7072    7073    7074    7059    7060    7061    7062    7063
    7064    7065    7066    7067    7068    7075    7060    7061    7062    7063
    7064    7065    7066    7067    7069    7070    7071    7075    7076    7061
    7062    7063    7064    7065    7066    7070    7072    7073    7074    7076
    7077    7078    7079    7062    7063    7067    7068    7069    7075    7067
    7068    7064    7067    7068    7069    7070    7071    7075    7065    7067
    7069    7070    7071    7072    7076    7066    7070    7071    7072    7073
    7074    7076    7077    7078    7080    7081    7082    7070    7072    7073
    7074    7077    7079    7080    7068    7069    7075    7075    7075    7071
    7072    7076    7077    7078    7076    7073    7076    7077    7078    7079
    7080    7081    7082    7083    7084    7085    7074    7077    7078    7079
    7080    7083    7084    7077    7079       0       0    7078    7079    7080
    7081    7082    7083    7084    7086    7087    7088    7080    7081    7082
    7083    7085    7086    7080    7081    7083    7084    7085    7086    7087
    7088    7089    7090    7091    7082    7083    7084    7085    7086    7089
    7090    7083    7085    7084    7085    7086    7087    7088    7089    7090
    7092    7086    7087    7088    7089    7091    7092    7086    7087    7089
    7090    7091    7092    7088    7089    7090    7091    7092    7089    7091
    7090    7091    7092    7092    7092       0    7094    7095    7096    7097
    7098    7099    7100    7101    7102    7103    7104    7105    7106    7107
    7108    7109    7110    7095    7096    7097    7098    7099    7100    7101
    7102    7103    7104    7111    7096    7097    7098    7099    7100    7101
    7102    7103    7105    7106    7107    7111    7112    7097    7098    7099
    7100    7101    7102    7106    7108    7109    7110    7112    7113    7114
    7115    7098    7099    7103    7104    7105    7111    7103    7104    7100
    7103    7104    7105    7106    7107    7111    7101    7103    7105    7106
    7107    7108    7112    7102    7106    7107    7108    7109    7110    7112
    7113    7114    7116    7117    7118    7106    7108    7109    7110    7113
    7115    7116    7104    7105    7111    7111    7111    7107    7108    7112
    7113    7114    7112    7109    7112    7113    7114    7115    7116    7117
    7118    7119    7120    7121    7110    7113    7114    7115    7116    7119
    7120    7113    7115       0       0    7114    7115    7116    7117    7118
    7119    7120    7122    7123    7124    7116    7117    7118    7119    7121
    7122    7116    7117    7119    7120    7121    7122    7123    7124    7125
    7126    7127    7118    7119    7120    7121    7122    7125    7126    7119
    7121    7120    7121    7122    7123    7124    7125    7126    7128    7122
    7123    7124    7125    7127    7128    7122    7123    7125    7126    7127
    7128    7124    7125    7126    7127    7128    7125    7127    7126    7127
    7128    7128    7128       0    7130    7131    7132    7133    7134    7135
    7136    7137    7138    7139    7140    7141    7142    7143    7144    7145
    7146    7131    7132    7133    7134    7135    7136    7137    7138    7139
    7140    7147    7132    7133    7134    7135    7136    7137    7138    7139
    7141    7142    7143    7147    7148    7133    7134    7135    7136    7137
    7138    7142    7144    7145    7146    7148    7149    7150    7151    7134
    7135    7139    7140    7141    7147    7139    7140    7136    7139    7140
    7141    7142    7143    7147    7137    7139    7141    7142    7143    7144
    7148    7138    7142    7143    7144    7145    7146    7148    7149    7150
    7152    7153    7154    7142    7144    7145    7146    7149    7151    7152
    7140    7141    7147    7147    7147    7143    7144    7148    7149    7150
    7148    7145    7148    7149    7150    7151    7152    7153    7154    7155
    7156    7157    7146    7149    7150    7151    7152    7155    7156    7149
    7151       0       0    7150    7151    7152    7153    7154    7155    7156
    7158    7159    7160    7152    7153    7154    7155    7157    7158    7152
    7153    7155    7156    7157    7158    7159    7160    7161    7162    7163
    7154    7155    7156    7157    7158    7161    7162    7155    7157    7156
    7157    7158    7159    7160    7161    7162    7164    7158    7159    7160
    7161    7163    7164    7158    7159    7161    7162    7163    7164    7160
    7161    7162    7163    7164    7161    7163    7162    7163    7164    7164
    7164       0    7166    7167    7168    7169    7170    7171    7172    7173
    7174    7175    7176    7177    7178    7179    7180    7181    7182    7167
    7168    7169    7170    7171    7172    7173    7174    7175    7176    7183
    7168    7169    7170    7171    7172    7173    7174    7175    7177    7178
    7179    7183    7184    7169    7170    7171    7172    7173    7174    7178
    7180    7181    7182    7184    7185    7186    7187    7170    7171    7175
    7176    7177    7183    7175    7176    7172    7175    7176    7177    7178
    7179    7183    7173    7175    7177    7178    7179    7180    7184    7174
    7178    7179    7180    7181    7182    7184    7185    7186    7188    7189
    7190    7178    7180    7181    7182    7185    7187    7188    7176    7177
    7183    7183    7183    7179    7180    7184    7185    7186    7184    7181
    7184    7185    7186    7187    7188    7189    7190    7191    7192    7193
    7182    7185    7186    7187    7188    7191    7192    7185    7187       0
       0    7186    7187    7188    7189    7190    7191    7192    7194    7195
    7196    7188    7189    7190    7191    7193    7194    7188    7189    7191
    7192    7193    7194    7195    7196    7197    7198    7199    7190    7191
    7192    7193    7194    7197    7198    7191    7193    7192    7193    7194
    7195    7196    7197    7198    7200    7194    7195    7196    7197    7199
    7200    7194    7195    7197    7198    7199    7200    7196    7197    7198
    7199    7200    7197    7199    7198    7199    7200    7200    7200       0
    7202    7203    7204    7205    7206    7207    7208    7209    7210    7211
    7212    7213    7214    7215    7216    7217    7218    7203    7204    7205
    7206    7207    7208    7209    7210    7211    7212    7219    7204    7205
    7206    7207    7208    7209    7210    7211    7213    7214    7215    7219
    7220    7205    7206    7207    7208    7209    7210    7214    7216    7217
    7218    7220    7221    7222    7223    7206    7207    7211    7212    7213
    7219    7211    7212    7208    7211    7212    7213    7214    7215    7219
    7209    7211    7213    7214    7215    7216    7220    7210    7214    7215
    7216    7217    7218    7220    7221    7222    7224    7225    7226    7214
    7216    7217    7218    7221    7223    7224    7212    7213    7219    7219
    7219    7215    7216    7220    7221    7222    7220    7217    7220    7221
    7222    7223    7224    7225    7226    7227    7228    7229    7218    7221
    7222    7223    7224    7227    7228    7221    7223       0       0    7222
    7223    7224    7225    7226    7227    7228    7230    7231    7232    7224
    7225    7226    7227    7229    7230    7224    7225    7227    7228    7229
    7230    7231    7232    7233    7234    7235    7226    7227    7228    7229
    7230    7233    7234    7227    7229    7228    7229    7230    7231    7232
    7233    7234    7236    7230    7231    7232    7233    7235    7236    7230
    7231    7233    7234    7235    7236    7232    7233    7234    7235    7236
    7233    7235    7234    7235    7236    7236    7236       0    7238    7239
    7240    7241    7242    7243    7244    7245    7246    7247    7248    7249
    7250    7251    7252    7253    7254    7239    7240    7241    7242    7243
    7244    7245    7246    7247    7248    7255    7240    7241    7242    7243
    7244    7245    7246    7247    7249    7250    7251    7255    7256    7241
    7242    7243    7244    7245    7246    7250    7252    7253    7254    7256
    7257    7258    7259    7242    7243    7247    7248    7249    7255    7247
    7248    7244    7247    7248    7249    7250    7251    7255    7245    7247
    7249    7250    7251    7252    7256    7246    7250    7251    7252    7253
    7254    7256    7257    7258    7260    7261    7262    7250    7252    7253
    7254    7257    7259    7260    7248    7249    7255    7255    7255    7251
    7252    7256    7257    7258    7256    7253    7256    7257    7258    7259
    7260    7261    7262    7263    7264    7265    7254    7257    7258    7259
    7260    7263    7264    7257    7259       0       0    7258    7259    7260
    7261    7262    7263    7264    7266    7267    7268    7260    7261    7262
    7263    7265    7266    7260    7261    7263    7264    7265    7266    7267
    7268    7269    7270    7271    7262    7263    7264    7265    7266    7269
    7270    7263    7265    7264    7265    7266    7267    7268    7269    7270
    7272    7266    7267    7268    7269    7271    7272    7266    7267    7269
    7270    7271    7272    7268    7269    7270    7271    7272    7269    7271
    7270    7271    7272    7272    7272       0    7274    7275    7276    7277
    7278    7279    7280    7281    7282    7283    7284    7285    7286    7287
    7288    7289    7290    7275    7276    7277    7278    7279    7280    7281
    7282    7283    7284    7291    7276    7277    7278    7279    7280    7281
    7282    7283    7285    7286    7287    7291    7292    7277    7278    7279
    7280    7281    7282    7286    7288    7289    7290    7292    7293    7294
    7295    7278    7279    7283    7284    7285    7291    7283    7284    7280
    7283    7284    7285    7286    7287    7291    7281    7283    7285    7286
    7287    7288    7292    7282    7286    7287    7288    7289    7290    7292
    7293    7294    7296    7297    7298    7286    7288    7289    7290    7293
    7295    7296    7284    7285    7291    7291    7291    7287    7288    7292
    7293    7294    7292    7289    7292    7293    7294    7295    7296    7297
    7298    7299    7300    7301    7290    7293    7294    7295    7296    7299
    7300    7293    7295       0       0    7294    7295    7296    7297    7298
    7299    7300    7302    7303    7304    7296    7297    7298    7299    7301
    7302    7296    7297    7299    7300    7301    7302    7303    7304    7305
    7306    7307    7298    7299    7300    7301    7302    7305    7306    7299
    7301    7300    7301    7302    7303    7304    7305    7306    7308    7302
    7303    7304    7305    7307    7308    7302    7303    7305    7306    7307
    7308    7304    7305    7306    7307    7308    7305    7307    7306    7307
    7308    7308    7308       0    7310    7311    7312    7313    7314    7315
    7316    7317    7318    7319    7320    7321    7322    7323    7324    7325
    7326    7311    7312    7313    7314    7315    7316    7317    7318    7319
    7320    7327    7312    7313    7314    7315    7316    7317    7318    7319
    7321    7322    7323    7327    7328    7313    7314    7315    7316    7317
    7318    7322    7324    7325    7326    7328    7329    7330    7331    7314
    7315    7319    7320    7321    7327    7319    7320    7316    7319    7320
    7321    7322    7323    7327    7317    7319    7321    7322    7323    7324
    7328    7318    7322    7323    7324    7325    7326    7328    7329    7330
    7332    7333    7334    7322    7324    7325    7326    7329    7331    7332
    7320    7321    7327    7327    7327    7323    7324    7328    7329    7330
    7328    7325    7328    7329    7330    7331    7332    7333    7334    7335
    7336    7337    7326    7329    7330    7331    7332    7335    7336    7329
    7331       0       0    7330    7331    7332    7333    7334    7335    7336
    7338    7339    7340    7332    7333    7334    7335    7337    7338    7332
    7333    7335    7336    7337    7338    7339    7340    7341    7342    7343
    7334    7335    7336    7337    7338    7341    7342    7335    7337    7336
    7337    7338    7339    7340    7341    7342    7344    7338    7339    7340
    7341    7343    7344    7338    7339    7341    7342    7343    7344    7340
    7341    7342    7343    7344    7341    7343    7342    7343    7344    7344
    7344       0    7346    7347    7348    7349    7350    7351    7352    7353
    7354    7355    7356    7357    7358    7359    7360    7361    7362    7347
    7348    7349    7350    7351    7352    7353    7354    7355    7356    7363
    7348    7349    7350    7351    7352    7353    7354    7355    7357    7358
    7359    7363    7364    7349    7350    7351    7352    7353    7354    7358
    7360    7361    7362    7364    7365    7366    7367    7350    7351    7355
    7356    7357    7363    7355    7356    7352    7355    7356    7357    7358
    7359    7363    7353    7355    7357    7358    7359    7360    7364    7354
    7358    7359    7360    7361    7362    7364    7365    7366    7368    7369
    7370    7358    7360    7361    7362    7365    7367    7368    7356    7357
    7363    7363    7363    7359    7360    7364    7365    7366    7364    7361
    7364    7365    7366    7367    7368    7369    7370    7371    7372    7373
    7362    7365    7366    7367    7368    7371    7372    7365    7367       0
       0    7366    7367    7368    7369    7370    7371    7372    7374    7375
    7376    7368    7369    7370    7371    7373    7374    7368    7369    7371
    7372    7373    7374    7375    7376    7377    7378    7379    7370    7371
    7372    7373    7374    7377    7378    7371    7373    7372    7373    7374
    7375    7376    7377    7378    7380    7374    7375    7376    7377    7379
    7380    7374    7375    7377    7378    7379    7380    7376    7377    7378
    7379    7380    7377    7379    7378    7379    7380    7380    7380       0
    7382    7383    7384    7385    7386    7387    7388    7389    7390    7391
    7392    7393    7394    7395    7396    7397    7398    7383    7384    7385
    7386    7387    7388    7389    7390    7391    7392    7399    7384    7385
    7386    7387    7388    7389    7390    7391    7393    7394    7395    7399
    7400    7385    7386    7387    7388    7389    7390    7394    7396    7397
    7398    7400    7401    7402    7403    7386    7387    7391    7392    7393
    7399    7391    7392    7388    7391    7392    7393    7394    7395    7399
    7389    7391    7393    7394    7395    7396    7400    7390    7394    7395
    7396    7397    7398    7400    7401    7402    7404    7405    7406    7394
    7396    7397    7398    7401    7403    7404    7392    7393    7399    7399
    7399    7395    7396    7400    7401    7402    7400    7397    7400    7401
    7402    7403    7404    7405    7406    7407    7408    7409    7398    7401
    7402    7403    7404    7407    7408    7401    7403       0       0    7402
    7403    7404    7405    7406    7407    7408    7410    7411    7412    7404
    7405    7406    7407    7409    7410    7404    7405    7407    7408    7409
    7410    7411    7412    7413    7414    7415    7406    7407    7408    7409
    7410    7413    7414    7407    7409    7408    7409    7410    7411    7412
    7413    7414    7416    7410    7411    7412    7413    7415    7416    7410
    7411    7413    7414    7415    7416    7412    7413    7414    7415    7416
    7413    7415    7414    7415    7416    7416    7416       0    7418    7419
    7420    7421    7422    7423    7424    7425    7426    7427    7428    7429
    7430    7431    7432    7433    7434    7419    7420    7421    7422    7423
    7424    7425    7426    7427    7428    7435    7420    7421    7422    7423
    7424    7425    7426    7427    7429    7430    7431    7435    7436    7421
    7422    7423    7424    7425    7426    7430    7432    7433    7434    7436
    7437    7438    7439    7422    7423    7427    7428    7429    7435    7427
    7428    7424    7427    7428    7429    7430    7431    7435    7425    7427
    7429    7430    7431    7432    7436    7426    7430    7431    7432    7433
    7434    7436    7437    7438    7440    7441    7442    7430    7432    7433
    7434    7437    7439    7440    7428    7429    7435    7435    7435    7431
    7432    7436    7437    7438    7436    7433    7436    7437    7438    7439
    7440    7441    7442    7443    7444    7445    7434    7437    7438    7439
    7440    7443    7444    7437    7439       0       0    7438    7439    7440
    7441    7442    7443    7444    7446    7447    7448    7440    7441    7442
    7443    7445    7446    7440    7441    7443    7444    7445    7446    7447
    7448    7449    7450    7451    7442    7443    7444    7445    7446    7449
    7450    7443    7445    7444    7445    7446    7447    7448    7449    7450
    7452    7446    7447    7448    7449    7451    7452    7446    7447    7449
    7450    7451    7452    7448    7449    7450    7451    7452    7449    7451
    7450    7451    7452    7452    7452       0    7454    7455    7456    7457
    7458    7459    7460    7461    7462    7463    7464    7465    7466    7467
    7468    7469    7470    7455    7456    7457    7458    7459    7460    7461
    7462    7463    7464    7471    7456    7457    7458    7459    7460    7461
    7462    7463    7465    7466    7467    7471    7472    7457    7458    7459
    7460    7461    7462    7466    7468    7469    7470    7472    7473    7474
    7475    7458    7459    7463    7464    7465    7471    7463    7464    7460
    7463    7464    7465    7466    7467    7471    7461    7463    7465    7466
    7467    7468    7472    7462    7466    7467    7468    7469    7470    7472
    7473    7474    7476    7477    7478    7466    7468    7469    7470    7473
    7475    7476    7464    7465    7471    7471    7471    7467    7468    7472
    7473    7474    7472    7469    7472    7473    7474    7475    7476    7477
    7478    7479    7480    7481    7470    7473    7474    7475    7476    7479
    7480    7473    7475       0       0    7474    7475    7476    7477    7478
    7479    7480    7482    7483    7484    7476    7477    7478    7479    7481
    7482    7476    7477    7479    7480    7481    7482    7483    7484    7485
    7486    7487    7478    7479    7480    7481    7482    7485    7486    7479
    7481    7480    7481    7482    7483    7484    7485    7486    7488    7482
    7483    7484    7485    7487    7488    7482    7483    7485    7486    7487
    7488    7484    7485    7486    7487    7488    7485    7487    7486    7487
    7488    7488    7488       0    7490    7491    7492    7493    7494    7495
    7496    7497    7498    7499    7500    7501    7502    7503    7504    7505
    7506    7491    7492    7493    7494    7495    7496    7497    7498    7499
    7500    7507    7492    7493    7494    7495    7496    7497    7498    7499
    7501    7502    7503    7507    7508    7493    7494    7495    7496    7497
    7498    7502    7504    7505    7506    7508    7509    7510    7511    7494
    7495    7499    7500    7501    7507    7499    7500    7496    7499    7500
    7501    7502    7503    7507    7497    7499    7501    7502    7503    7504
    7508    7498    7502    7503    7504    7505    7506    7508    7509    7510
    7512    7513    7514    7502    7504    7505    7506    7509    7511    7512
    7500    7501    7507    7507    7507    7503    7504    7508    7509    7510
    7508    7505    7508    7509    7510    7511    7512    7513    7514    7515
    7516    7517    7506    7509    7510    7511    7512    7515    7516    7509
    7511       0       0    7510    7511    7512    7513    7514    7515    7516
    7518    7519    7520    7512    7513    7514    7515    7517    7518    7512
    7513    7515    7516    7517    7518    7519    7520    7521    7522    7523
    7514    7515    7516    7517    7518    7521    7522    7515    7517    7516
    7517    7518    7519    7520    7521    7522    7524    7518    7519    7520
    7521    7523    7524    7518    7519    7521    7522    7523    7524    7520
    7521    7522    7523    7524    7521    7523    7522    7523    7524    7524
    7524       0    7526    7527    7528    7529    7530    7531    7532    7533
    7534    7535    7536    7537    7538    7539    7540    7541    7542    7527
    7528    7529    7530    7531    7532    7533    7534    7535    7536    7543
    7528    7529    7530    7531    7532    7533    7534    7535    7537    7538
    7539    7543    7544    7529    7530    7531    7532    7533    7534    7538
    7540    7541    7542    7544    7545    7546    7547    7530    7531    7535
    7536    7537    7543    7535    7536    7532    7535    7536    7537    7538
    7539    7543    7533    7535    7537    7538    7539    7540    7544    7534
    7538    7539    7540    7541    7542    7544    7545    7546    7548    7549
    7550    7538    7540    7541    7542    7545    7547    7548    7536    7537
    7543    7543    7543    7539    7540    7544    7545    7546    7544    7541
    7544    7545    7546    7547    7548    7549    7550    7551    7552    7553
    7542    7545    7546    7547    7548    7551    7552    7545    7547       0
       0    7546    7547    7548    7549    7550    7551    7552    7554    7555
    7556    7548    7549    7550    7551    7553    7554    7548    7549    7551
    7552    7553    7554    7555    7556    7557    7558    7559    7550    7551
    7552    7553    7554    7557    7558    7551    7553    7552    7553    7554
    7555    7556    7557    7558    7560    7554    7555    7556    7557    7559
    7560    7554    7555    7557    7558    7559    7560    7556    7557    7558
    7559    7560    7557    7559    7558    7559    7560    7560    7560       0
    7562    7563    7564    7565    7566    7567    7568    7569    7570    7571
    7572    7573    7574    7575    7576    7577    7578    7563    7564    7565
    7566    7567    7568    7569    7570    7571    7572    7579    7564    7565
    7566    7567    7568    7569    7570    7571    7573    7574    7575    7579
    7580    7565    7566    7567    7568    7569    7570    7574    7576    7577
    7578    7580    7581    7582    7583    7566    7567    7571    7572    7573
    7579    7571    7572    7568    7571    7572    7573    7574    7575    7579
    7569    7571    7573    7574    7575    7576    7580    7570    7574    7575
    7576    7577    7578    7580    7581    7582    7584    7585    7586    7574
    7576    7577    7578    7581    7583    7584    7572    7573    7579    7579
    7579    7575    7576    7580    7581    7582    7580    7577    7580    7581
    7582    7583    7584    7585    7586    7587    7588    7589    7578    7581
    7582    7583    7584    7587    7588    7581    7583       0       0    7582
    7583    7584    7585    7586    7587    7588    7590    7591    7592    7584
    7585    7586    7587    7589    7590    7584    7585    7587    7588    7589
    7590    7591    7592    7593    7594    7595    7586    7587    7588    7589
    7590    7593    7594    7587    7589    7588    7589    7590    7591    7592
    7593    7594    7596    7590    7591    7592    7593    7595    7596    7590
    7591    7593    7594    7595    7596    7592    7593    7594    7595    7596
    7593    7595    7594    7595    7596    7596    7596       0    7598    7599
    7600    7601    7602    7603    7604    7605    7606    7607    7608    7609
    7610    7611    7612    7613    7614    7599    7600    7601    7602    7603
    7604    7605    7606    7607    7608    7615    7600    7601    7602    7603
    7604    7605    7606    7607    7609    7610    7611    7615    7616    7601
    7602    7603    7604    7605    7606    7610    7612    7613    7614    7616
    7617    7618    7619    7602    7603    7607    7608    7609    7615    7607
    7608    7604    7607    7608    7609    7610    7611    7615    7605    7607
    7609    7610    7611    7612    7616    7606    7610    7611    7612    7613
    7614    7616    7617    7618    7620    7621    7622    7610    7612    7613
    7614    7617    7619    7620    7608    7609    7615    7615    7615    7611
    7612    7616    7617    7618    7616    7613    7616    7617    7618    7619
    7620    7621    7622    7623    7624    7625    7614    7617    7618    7619
    7620    7623    7624    7617    7619       0       0    7618    7619    7620
    7621    7622    7623    7624    7626    7627    7628    7620    7621    7622
    7623    7625    7626    7620    7621    7623    7624    7625    7626    7627
    7628    7629    7630    7631    7622    7623    7624    7625    7626    7629
    7630    7623    7625    7624    7625    7626    7627    7628    7629    7630
    7632    7626    7627    7628    7629    7631    7632    7626    7627    7629
    7630    7631    7632    7628    7629    7630    7631    7632    7629    7631
    7630    7631    7632    7632    7632       0    7634    7635    7636    7637
    7638    7639    7640    7641    7642    7643    7644    7645    7646    7647
    7648    7649    7650    7635    7636    7637    7638    7639    7640    7641
    7642    7643    7644    7651    7636    7637    7638    7639    7640    7641
    7642    7643    7645    7646    7647    7651    7652    7637    7638    7639
    7640    7641    7642    7646    7648    7649    7650    7652    7653    7654
    7655    7638    7639    7643    7644    7645    7651    7643    7644    7640
    7643    7644    7645    7646    7647    7651    7641    7643    7645    7646
    7647    7648    7652    7642    7646    7647    7648    7649    7650    7652
    7653    7654    7656    7657    7658    7646    7648    7649    7650    7653
    7655    7656    7644    7645    7651    7651    7651    7647    7648    7652
    7653    7654    7652    7649    7652    7653    7654    7655    7656    7657
    7658    7659    7660    7661    7650    7653    7654    7655    7656    7659
    7660    7653    7655       0       0    7654    7655    7656    7657    7658
    7659    7660    7662    7663    7664    7656    7657    7658    7659    7661
    7662    7656    7657    7659    7660    7661    7662    7663    7664    7665
    7666    7667    7658    7659    7660    7661    7662    7665    7666    7659
    7661    7660    7661    7662    7663    7664    7665    7666    7668    7662
    7663    7664    7665    7667    7668    7662    7663    7665    7666    7667
    7668    7664    7665    7666    7667    7668    7665    7667    7666    7667
    7668    7668    7668       0    7670    7671    7672    7673    7674    7675
    7676    7677    7678    7679    7680    7681    7682    7683    7684    7685
    7686    7671    7672    7673    7674    7675    7676    7677    7678    7679
    7680    7687    7672    7673    7674    7675    7676    7677    7678    7679
    7681    7682    7683    7687    7688    7673    7674    7675    7676    7677
    7678    7682    7684    7685    7686    7688    7689    7690    7691    7674
    7675    7679    7680    7681    7687    7679    7680    7676    7679    7680
    7681    7682    7683    7687    7677    7679    7681    7682    7683    7684
    7688    7678    7682    7683    7684    7685    7686    7688    7689    7690
    7692    7693    7694    7682    7684    7685    7686    7689    7691    7692
    7680    7681    7687    7687    7687    7683    7684    7688    7689    7690
    7688    7685    7688    7689    7690    7691    7692    7693    7694    7695
    7696    7697    7686    7689    7690    7691    7692    7695    7696    7689
    7691       0       0    7690    7691    7692    7693    7694    7695    7696
    7698    7699    7700    7692    7693    7694    7695    7697    7698    7692
    7693    7695    7696    7697    7698    7699    7700    7701    7702    7703
    7694    7695    7696    7697    7698    7701    7702    7695    7697    7696
    7697    7698    7699    7700    7701    7702    7704    7698    7699    7700
    7701    7703    7704    7698    7699    7701    7702    7703    7704    7700
    7701    7702    7703    7704    7701    7703    7702    7703    7704    7704
    7704       0    7706    7707    7708    7709    7710    7711    7712    7713
    7714    7715    7716    7717    7718    7719    7720    7721    7722    7707
    7708    7709    7710    7711    7712    7713    7714    7715    7716    7723
    7708    7709    7710    7711    7712    7713    7714    7715    7717    7718
    7719    7723    7724    7709    7710    7711    7712    7713    7714    7718
    7720    7721    7722    7724    7725    7726    7727    7710    7711    7715
    7716    7717    7723    7715    7716    7712    7715    7716    7717    7718
    7719    7723    7713    7715    7717    7718    7719    7720    7724    7714
    7718    7719    7720    7721    7722    7724    7725    7726    7728    7729
    7730    7718    7720    7721    7722    7725    7727    7728    7716    7717
    7723    7723    7723    7719    7720    7724    7725    7726    7724    7721
    7724    7725    7726    7727    7728    7729    7730    7731    7732    7733
    7722    7725    7726    7727    7728    7731    7732    7725    7727       0
       0    7726    7727    7728    7729    7730    7731    7732    7734    7735
    7736    7728    7729    7730    7731    7733    7734    7728    7729    7731
    7732    7733    7734    7735    7736    7737    7738    7739    7730    7731
    7732    7733    7734    7737    7738    7731    7733    7732    7733    7734
    7735    7736    7737    7738    7740    7734    7735    7736    7737    7739
    7740    7734    7735    7737    7738    7739    7740    7736    7737    7738
    7739    7740    7737    7739    7738    7739    7740    7740    7740       0
    7742    7743    7744    7745    7746    7747    7748    7749    7750    7751
    7752    7753    7754    7755    7756    7757    7758    7743    7744    7745
    7746    7747    7748    7749    7750    7751    7752    7759    7744    7745
    7746    7747    7748    7749    7750    7751    7753    7754    7755    7759
    7760    7745    7746    7747    7748    7749    7750    7754    7756    7757
    7758    7760    7761    7762    7763    7746    7747    7751    7752    7753
    7759    7751    7752    7748    7751    7752    7753    7754    7755    7759
    7749    7751    7753    7754    7755    7756    7760    7750    7754    7755
    7756    7757    7758    7760    7761    7762    7764    7765    7766    7754
    7756    7757    7758    7761    7763    7764    7752    7753    7759    7759
    7759    7755    7756    7760    7761    7762    7760    7757    7760    7761
    7762    7763    7764    7765    7766    7767    7768    7769    7758    7761
    7762    7763    7764    7767    7768    7761    7763       0       0    7762
    7763    7764    7765    7766    7767    7768    7770    7771    7772    7764
    7765    7766    7767    7769    7770    7764    7765    7767    7768    7769
    7770    7771    7772    7773    7774    7775    7766    7767    7768    7769
    7770    7773    7774    7767    7769    7768    7769    7770    7771    7772
    7773    7774    7776    7770    7771    7772    7773    7775    7776    7770
    7771    7773    7774    7775    7776    7772    7773    7774    7775    7776
    7773    7775    7774    7775    7776    7776    7776       0    7778    7779
    7780    7781    7782    7783    7784    7785    7786    7787    7788    7789
    7790    7791    7792    7793    7794    7779    7780    7781    7782    7783
    7784    7785    7786    7787    7788    7795    7780    7781    7782    7783
    7784    7785    7786    7787    7789    7790    7791    7795    7796    7781
    7782    7783    7784    7785    7786    7790    7792    7793    7794    7796
    7797    7798    7799    7782    7783    7787    7788    7789    7795    7787
    7788    7784    7787    7788    7789    7790    7791    7795    7785    7787
    7789    7790    7791    7792    7796    7786    7790    7791    7792    7793
    7794    7796    7797    7798    7800    7801    7802    7790    7792    7793
    7794    7797    7799    7800    7788    7789    7795    7795    7795    7791
    7792    7796    7797    7798    7796    7793    7796    7797    7798    7799
    7800    7801    7802    7803    7804    7805    7794    7797    7798    7799
    7800    7803    7804    7797    7799       0       0    7798    7799    7800
    7801    7802    7803    7804    7806    7807    7808    7800    7801    7802
    7803    7805    7806    7800    7801    7803    7804    7805    7806    7807
    7808    7809    7810    7811    7802    7803    7804    7805    7806    7809
    7810    7803    7805    7804    7805    7806    7807    7808    7809    7810
    7812    7806    7807    7808    7809    7811    7812    7806    7807    7809
    7810    7811    7812    7808    7809    7810    7811    7812    7809    7811
    7810    7811    7812    7812    7812       0    7814    7815    7816    7817
    7818    7819    7820    7821    7822    7823    7824    7825    7826    7827
    7828    7829    7830    7815    7816    7817    7818    7819    7820    7821
    7822    7823    7824    7831    7816    7817    7818    7819    7820    7821
    7822    7823    7825    7826    7827    7831    7832    7817    7818    7819
    7820    7821    7822    7826    7828    7829    7830    7832    7833    7834
    7835    7818    7819    7823    7824    7825    7831    7823    7824    7820
    7823    7824    7825    7826    7827    7831    7821    7823    7825    7826
    7827    7828    7832    7822    7826    7827    7828    7829    7830    7832
    7833    7834    7836    7837    7838    7826    7828    7829    7830    7833
    7835    7836    7824    7825    7831    7831    7831    7827    7828    7832
    7833    7834    7832    7829    7832    7833    7834    7835    7836    7837
    7838    7839    7840    7841    7830    7833    7834    7835    7836    7839
    7840    7833    7835       0       0    7834    7835    7836    7837    7838
    7839    7840    7842    7843    7844    7836    7837    7838    7839    7841
    7842    7836    7837    7839    7840    7841    7842    7843    7844    7845
    7846    7847    7838    7839    7840    7841    7842    7845    7846    7839
    7841    7840    7841    7842    7843    7844    7845    7846    7848    7842
    7843    7844    7845    7847    7848    7842    7843    7845    7846    7847
    7848    7844    7845    7846    7847    7848    7845    7847    7846    7847
    7848    7848    7848       0    7850    7851    7852    7853    7854    7855
    7856    7857    7858    7859    7860    7861    7862    7863    7864    7865
    7866    7851    7852    7853    7854    7855    7856    7857    7858    7859
    7860    7867    7852    7853    7854    7855    7856    7857    7858    7859
    7861    7862    7863    7867    7868    7853    7854    7855    7856    7857
    7858    7862    7864    7865    7866    7868    7869    7870    7871    7854
    7855    7859    7860    7861    7867    7859    7860    7856    7859    7860
    7861    7862    7863    7867    7857    7859    7861    7862    7863    7864
    7868    7858    7862    7863    7864    7865    7866    7868    7869    7870
    7872    7873    7874    7862    7864    7865    7866    7869    7871    7872
    7860    7861    7867    7867    7867    7863    7864    7868    7869    7870
    7868    7865    7868    7869    7870    7871    7872    7873    7874    7875
    7876    7877    7866    7869    7870    7871    7872    7875    7876    7869
    7871       0       0    7870    7871    7872    7873    7874    7875    7876
    7878    7879    7880    7872    7873    7874    7875    7877    7878    7872
    7873    7875    7876    7877    7878    7879    7880    7881    7882    7883
    7874    7875    7876    7877    7878    7881    7882    7875    7877    7876
    7877    7878    7879    7880    7881    7882    7884    7878    7879    7880
    7881    7883    7884    7878    7879    7881    7882    7883    7884    7880
    7881    7882    7883    7884    7881    7883    7882    7883    7884    7884
    7884       0    7886    7887    7888    7889    7890    7891    7892    7893
    7894    7895    7896    7897    7898    7899    7900    7901    7902    7887
    7888    7889    7890    7891    7892    7893    7894    7895    7896    7903
    7888    7889    7890    7891    7892    7893    7894    7895    7897    7898
    7899    7903    7904    7889    7890    7891    7892    7893    7894    7898
    7900    7901    7902    7904    7905    7906    7907    7890    7891    7895
    7896    7897    7903    7895    7896    7892    7895    7896    7897    7898
    7899    7903    7893    7895    7897    7898    7899    7900    7904    7894
    7898    7899    7900    7901    7902    7904    7905    7906    7908    7909
    7910    7898    7900    7901    7902    7905    7907    7908    7896    7897
    7903    7903    7903    7899    7900    7904    7905    7906    7904    7901
    7904    7905    7906    7907    7908    7909    7910    7911    7912    7913
    7902    7905    7906    7907    7908    7911    7912    7905    7907       0
       0    7906    7907    7908    7909    7910    7911    7912    7914    7915
    7916    7908    7909    7910    7911    7913    7914    7908    7909    7911
    7912    7913    7914    7915    7916    7917    7918    7919    7910    7911
    7912    7913    7914    7917    7918    7911    7913    7912    7913    7914
    7915    7916    7917    7918    7920    7914    7915    7916    7917    7919
    7920    7914    7915    7917    7918    7919    7920    7916    7917    7918
    7919    7920    7917    7919    7918    7919    7920    7920    7920       0
    7922    7923    7924    7925    7926    7927    7928    7929    7930    7931
    7932    7933    7934    7935    7936    7937    7938    7923    7924    7925
    7926    7927    7928    7929    7930    7931    7932    7939    7924    7925
    7926    7927    7928    7929    7930    7931    7933    7934    7935    7939
    7940    7925    7926    7927    7928    7929    7930    7934    7936    7937
    7938    7940    7941    7942    7943    7926    7927    7931    7932    7933
    7939    7931    7932    7928    7931    7932    7933    7934    7935    7939
    7929    7931    7933    7934    7935    7936    7940    7930    7934    7935
    7936    7937    7938    7940    7941    7942    7944    7945    7946    7934
    7936    7937    7938    7941    7943    7944    7932    7933    7939    7939
    7939    7935    7936    7940    7941    7942    7940    7937    7940    7941
    7942    7943    7944    7945    7946    7947    7948    7949    7938    7941
    7942    7943    7944    7947    7948    7941    7943       0       0    7942
    7943    7944    7945    7946    7947    7948    7950    7951    7952    7944
    7945    7946    7947    7949    7950    7944    7945    7947    7948    7949
    7950    7951    7952    7953    7954    7955    7946    7947    7948    7949
    7950    7953    7954    7947    7949    7948    7949    7950    7951    7952
    7953    7954    7956    7950    7951    7952    7953    7955    7956    7950
    7951    7953    7954    7955    7956    7952    7953    7954    7955    7956
    7953    7955    7954    7955    7956    7956    7956       0    7958    7959
    7960    7961    7962    7963    7964    7965    7966    7967    7968    7969
    7970    7971    7972    7973    7974    7959    7960    7961    7962    7963
    7964    7965    7966    7967    7968    7975    7960    7961    7962    7963
    7964    7965    7966    7967    7969    7970    7971    7975    7976    7961
    7962    7963    7964    7965    7966    7970    7972    7973    7974    7976
    7977    7978    7979    7962    7963    7967    7968    7969    7975    7967
    7968    7964    7967    7968    7969    7970    7971    7975    7965    7967
    7969    7970    7971    7972    7976    7966    7970    7971    7972    7973
    7974    7976    7977    7978    7980    7981    7982    7970    7972    7973
    7974    7977    7979    7980    7968    7969    7975    7975    7975    7971
    7972    7976    7977    7978    7976    7973    7976    7977    7978    7979
    7980    7981    7982    7983    7984    7985    7974    7977    7978    7979
    7980    7983    7984    7977    7979       0       0    7978    7979    7980
    7981    7982    7983    7984    7986    7987    7988    7980    7981    7982
    7983    7985    7986    7980    7981    7983    7984    7985    7986    7987
    7988    7989    7990    7991    7982    7983    7984    7985    7986    7989
    7990    7983    7985    7984    7985    7986    7987    7988    7989    7990
    7992    7986    7987    7988    7989    7991    7992    7986    7987    7989
    7990    7991    7992    7988    7989    7990    7991    7992    7989    7991
    7990    7991    7992    7992    7992       0    7994    7995    7996    7997
    7998    7999    8000    8001    8002    8003    8004    8005    8006    8007
    8008    8009    8010    7995    7996    7997    7998    7999    8000    8001
    8002    8003    8004    8011    7996    7997    7998    7999    8000    8001
    8002    8003    8005    8006    8007    8011    8012    7997    7998    7999
    8000    8001    8002    8006    8008    8009    8010    8012    8013    8014
    8015    7998    7999    8003    8004    8005    8011    8003    8004    8000
    8003    8004    8005    8006    8007    8011    8001    8003    8005    8006
    8007    8008    8012    8002    8006    8007    8008    8009    8010    8012
    8013    8014    8016    8017    8018    8006    8008    8009    8010    8013
    8015    8016    8004    8005    8011    8011    8011    8007    8008    8012
    8013    8014    8012    8009    8012    8013    8014    8015    8016    8017
    8018    8019    8020    8021    8010    8013    8014    8015    8016    8019
    8020    8013    8015       0       0    8014    8015    8016    8017    8018
    8019    8020    8022    8023    8024    8016    8017    8018    8019    8021
    8022    8016    8017    8019    8020    8021    8022    8023    8024    8025
    8026    8027    8018    8019    8020    8021    8022    8025    8026    8019
    8021    8020    8021    8022    8023    8024    8025    8026    8028    8022
    8023    8024    8025    8027    8028    8022    8023    8025    8026    8027
    8028    8024    8025    8026    8027    8028    8025    8027    8026    8027
    8028    8028    8028       0    8030    8031    8032    8033    8034    8035
    8036    8037    8038    8039    8040    8041    8042    8043    8044    8045
    8046    8031    8032    8033    8034    8035    8036    8037    8038    8039
    8040    8047    8032    8033    8034    8035    8036    8037    8038    8039
    8041    8042    8043    8047    8048    8033    8034    8035    8036    8037
    8038    8042    8044    8045    8046    8048    8049    8050    8051    8034
    8035    8039    8040    8041    8047    8039    8040    8036    8039    8040
    8041    8042    8043    8047    8037    8039    8041    8042    8043    8044
    8048    8038    8042    8043    8044    8045    8046    8048    8049    8050
    8052    8053    8054    8042    8044    8045    8046    8049    8051    8052
    8040    8041    8047    8047    8047    8043    8044    8048    8049    8050
    8048    8045    8048    8049    8050    8051    8052    8053    8054    8055
    8056    8057    8046    8049    8050    8051    8052    8055    8056    8049
    8051       0       0    8050    8051    8052    8053    8054    8055    8056
    8058    8059    8060    8052    8053    8054    8055    8057    8058    8052
    8053    8055    8056    8057    8058    8059    8060    8061    8062    8063
    8054    8055    8056    8057    8058    8061    8062    8055    8057    8056
    8057    8058    8059    8060    8061    8062    8064    8058    8059    8060
    8061    8063    8064    8058    8059    8061    8062    8063    8064    8060
    8061    8062    8063    8064    8061    8063    8062    8063    8064    8064
    8064       0    8066    8067    8068    8069    8070    8071    8072    8073
    8074    8075    8076    8077    8078    8079    8080    8081    8082    8067
    8068    8069    8070    8071    8072    8073    8074    8075    8076    8083
    8068    8069    8070    8071    8072    8073    8074    8075    8077    8078
    8079    8083    8084    8069    8070    8071    8072    8073    8074    8078
    8080    8081    8082    8084    8085    8086    8087    8070    8071    8075
    8076    8077    8083    8075    8076    8072    8075    8076    8077    8078
    8079    8083    8073    8075    8077    8078    8079    8080    8084    8074
    8078    8079    8080    8081    8082    8084    8085    8086    8088    8089
    8090    8078    8080    8081    8082    8085    8087    8088    8076    8077
    8083    8083    8083    8079    8080    8084    8085    8086    8084    8081
    8084    8085    8086    8087    8088    8089    8090    8091    8092    8093
    8082    8085    8086    8087    8088    8091    8092    8085    8087       0
       0    8086    8087    8088    8089    8090    8091    8092    8094    8095
    8096    8088    8089    8090    8091    8093    8094    8088    8089    8091
    8092    8093    8094    8095    8096    8097    8098    8099    8090    8091
    8092    8093    8094    8097    8098    8091    8093    8092    8093    8094
    8095    8096    8097    8098    8100    8094    8095    8096    8097    8099
    8100    8094    8095    8097    8098    8099    8100    8096    8097    8098
    8099    8100    8097    8099    8098    8099    8100    8100    8100       0
    8102    8103    8104    8105    8106    8107    8108    8109    8110    8111
    8112    8113    8114    8115    8116    8117    8118    8103    8104    8105
    8106    8107    8108    8109    8110    8111    8112    8119    8104    8105
    8106    8107    8108    8109    8110    8111    8113    8114    8115    8119
    8120    8105    8106    8107    8108    8109    8110    8114    8116    8117
    8118    8120    8121    8122    8123    8106    8107    8111    8112    8113
    8119    8111    8112    8108    8111    8112    8113    8114    8115    8119
    8109    8111    8113    8114    8115    8116    8120    8110    8114    8115
    8116    8117    8118    8120    8121    8122    8124    8125    8126    8114
    8116    8117    8118    8121    8123    8124    8112    8113    8119    8119
    8119    8115    8116    8120    8121    8122    8120    8117    8120    8121
    8122    8123    8124    8125    8126    8127    8128    8129    8118    8121
    8122    8123    8124    8127    8128    8121    8123       0       0    8122
    8123    8124    8125    8126    8127    8128    8130    8131    8132    8124
    8125    8126    8127    8129    8130    8124    8125    8127    8128    8129
    8130    8131    8132    8133    8134    8135    8126    8127    8128    8129
    8130    8133    8134    8127    8129    8128    8129    8130    8131    8132
    8133    8134    8136    8130    8131    8132    8133    8135    8136    8130
    8131    8133    8134    8135    8136    8132    8133    8134    8135    8136
    8133    8135    8134    8135    8136    8136    8136       0    8138    8139
    8140    8141    8142    8143    8144    8145    8146    8147    8148    8149
    8150    8151    8152    8153    8154    8139    8140    8141    8142    8143
    8144    8145    8146    8147    8148    8155    8140    8141    8142    8143
    8144    8145    8146    8147    8149    8150    8151    8155    8156    8141
    8142    8143    8144    8145    8146    8150    8152    8153    8154    8156
    8157    8158    8159    8142    8143    8147    8148    8149    8155    8147
    8148    8144    8147    8148    8149    8150    8151    8155    8145    8147
    8149    8150    8151    8152    8156    8146    8150    8151    8152    8153
    8154    8156    8157    8158    8160    8161    8162    8150    8152    8153
    8154    8157    8159    8160    8148    8149    8155    8155    8155    8151
    8152    8156    8157    8158    8156    8153    8156    8157    8158    8159
    8160    8161    8162    8163    8164    8165    8154    8157    8158    8159
    8160    8163    8164    8157    8159       0       0    8158    8159    8160
    8161    8162    8163    8164    8166    8167    8168    8160    8161    8162
    8163    8165    8166    8160    8161    8163    8164    8165    8166    8167
    8168    8169    8170    8171    8162    8163    8164    8165    8166    8169
    8170    8163    8165    8164    8165    8166    8167    8168    8169    8170
    8172    8166    8167    8168    8169    8171    8172    8166    8167    8169
    8170    8171    8172    8168    8169    8170    8171    8172    8169    8171
    8170    8171    8172    8172    8172       0    8174    8175    8176    8177
    8178    8179    8180    8181    8182    8183    8184    8185    8186    8187
    8188    8189    8190    8175    8176    8177    8178    8179    8180    8181
    8182    8183    8184    8191    8176    8177    8178    8179    8180    8181
    8182    8183    8185    8186    8187    8191    8192    8177    8178    8179
    8180    8181    8182    8186    8188    8189    8190    8192    8193    8194
    8195    8178    8179    8183    8184    8185    8191    8183    8184    8180
    8183    8184    8185    8186    8187    8191    8181    8183    8185    8186
    8187    8188    8192    8182    8186    8187    8188    8189    8190    8192
    8193    8194    8196    8197    8198    8186    8188    8189    8190    8193
    8195    8196    8184    8185    8191    8191    8191    8187    8188    8192
    8193    8194    8192    8189    8192    8193    8194    8195    8196    8197
    8198    8199    8200    8201    8190    8193    8194    8195    8196    8199
    8200    8193    8195       0       0    8194    8195    8196    8197    8198
    8199    8200    8202    8203    8204    8196    8197    8198    8199    8201
    8202    8196    8197    8199    8200    8201    8202    8203    8204    8205
    8206    8207    8198    8199    8200    8201    8202    8205    8206    8199
    8201    8200    8201    8202    8203    8204    8205    8206    8208    8202
    8203    8204    8205    8207    8208    8202    8203    8205    8206    8207
    8208    8204    8205    8206    8207    8208    8205    8207    8206    8207
    8208    8208    8208       0    8210    8211    8212    8213    8214    8215
    8216    8217    8218    8219    8220    8221    8222    8223    8224    8225
    8226    8211    8212    8213    8214    8215    8216    8217    8218    8219
    8220    8227    8212    8213    8214    8215    8216    8217    8218    8219
    8221    8222    8223    8227    8228    8213    8214    8215    8216    8217
    8218    8222    8224    8225    8226    8228    8229    8230    8231    8214
    8215    8219    8220    8221    8227    8219    8220    8216    8219    8220
    8221    8222    8223    8227    8217    8219    8221    8222    8223    8224
    8228    8218    8222    8223    8224    8225    8226    8228    8229    8230
    8232    8233    8234    8222    8224    8225    8226    8229    8231    8232
    8220    8221    8227    8227    8227    8223    8224    8228    8229    8230
    8228    8225    8228    8229    8230    8231    8232    8233    8234    8235
    8236    8237    8226    8229    8230    8231    8232    8235    8236    8229
    8231       0       0    8230    8231    8232    8233    8234    8235    8236
    8238    8239    8240    8232    8233    8234    8235    8237    8238    8232
    8233    8235    8236    8237    8238    8239    8240    8241    8242    8243
    8234    8235    8236    8237    8238    8241    8242    8235    8237    8236
    8237    8238    8239    8240    8241    8242    8244    8238    8239    8240
    8241    8243    8244    8238    8239    8241    8242    8243    8244    8240
    8241    8242    8243    8244    8241    8243    8242    8243    8244    8244
    8244       0    8246    8247    8248    8249    8250    8251    8252    8253
    8254    8255    8256    8257    8258    8259    8260    8261    8262    8247
    8248    8249    8250    8251    8252    8253    8254    8255    8256    8263
    8248    8249    8250    8251    8252    8253    8254    8255    8257    8258
    8259    8263    8264    8249    8250    8251    8252    8253    8254    8258
    8260    8261    8262    8264    8265    8266    8267    8250    8251    8255
    8256    8257    8263    8255    8256    8252    8255    8256    8257    8258
    8259    8263    8253    8255    8257    8258    8259    8260    8264    8254
    8258    8259    8260    8261    8262    8264    8265    8266    8268    8269
    8270    8258    8260    8261    8262    8265    8267    8268    8256    8257
    8263    8263    8263    8259    8260    8264    8265    8266    8264    8261
    8264    8265    8266    8267    8268    8269    8270    8271    8272    8273
    8262    8265    8266    8267    8268    8271    8272    8265    8267       0
       0    8266    8267    8268    8269    8270    8271    8272    8274    8275
    8276    8268    8269    8270    8271    8273    8274    8268    8269    8271
    8272    8273    8274    8275    8276    8277    8278    8279    8270    8271
    8272    8273    8274    8277    8278    8271    8273    8272    8273    8274
    8275    8276    8277    8278    8280    8274    8275    8276    8277    8279
    8280    8274    8275    8277    8278    8279    8280    8276    8277    8278
    8279    8280    8277    8279    8278    8279    8280    8280    8280       0
    8282    8283    8284    8285    8286    8287    8288    8289    8290    8291
    8292    8293    8294    8295    8296    8297    8298    8283    8284    8285
    8286    8287    8288    8289    8290    8291    8292    8299    8284    8285
    8286    8287    8288    8289    8290    8291    8293    8294    8295    8299
    8300    8285    8286    8287    8288    8289    8290    8294    8296    8297
    8298    8300    8301    8302    8303    8286    8287    8291    8292    8293
    8299    8291    8292    8288    8291    8292    8293    8294    8295    8299
    8289    8291    8293    8294    8295    8296    8300    8290    8294    8295
    8296    8297    8298    8300    8301    8302    8304    8305    8306    8294
    8296    8297    8298    8301    8303    8304    8292    8293    8299    8299
    8299    8295    8296    8300    8301    8302    8300    8297    8300    8301
    8302    8303    8304    8305    8306    8307    8308    8309    8298    8301
    8302    8303    8304    8307    8308    8301    8303       0       0    8302
    8303    8304    8305    8306    8307    8308    8310    8311    8312    8304
    8305    8306    8307    8309    8310    8304    8305    8307    8308    8309
    8310    8311    8312    8313    8314    8315    8306    8307    8308    8309
    8310    8313    8314    8307    8309    8308    8309    8310    8311    8312
    8313    8314    8316    8310    8311    8312    8313    8315    8316    8310
    8311    8313    8314    8315    8316    8312    8313    8314    8315    8316
    8313    8315    8314    8315    8316    8316    8316       0    8318    8319
    8320    8321    8322    8323    8324    8325    8326    8327    8328    8329
    8330    8331    8332    8333    8334    8319    8320    8321    8322    8323
    8324    8325    8326    8327    8328    8335    8320    8321    8322    8323
    8324    8325    8326    8327    8329    8330    8331    8335    8336    8321
    8322    8323    8324    8325    8326    8330    8332    8333    8334    8336
    8337    8338    8339    8322    8323    8327    8328    8329    8335    8327
    8328    8324    8327    8328    8329    8330    8331    8335    8325    8327
    8329    8330    8331    8332    8336    8326    8330    8331    8332    8333
    8334    8336    8337    8338    8340    8341    8342    8330    8332    8333
    8334    8337    8339    8340    8328    8329    8335    8335    8335    8331
    8332    8336    8337    8338    8336    8333    8336    8337    8338    8339
    8340    8341    8342    8343    8344    8345    8334    8337    8338    8339
    8340    8343    8344    8337    8339       0       0    8338    8339    8340
    8341    8342    8343    8344    8346    8347    8348    8340    8341    8342
    8343    8345    8346    8340    8341    8343    8344    8345    8346    8347
    8348    8349    8350    8351    8342    8343    8344    8345    8346    8349
    8350    8343    8345    8344    8345    8346    8347    8348    8349    8350
    8352    8346    8347    8348    8349    8351    8352    8346    8347    8349
    8350    8351    8352    8348    8349    8350    8351    8352    8349    8351
    8350    8351    8352    8352    8352       0    8354    8355    8356    8357
    8358    8359    8360    8361    8362    8363    8364    8365    8366    8367
    8368    8369    8370    8355    8356    8357    8358    8359    8360    8361
    8362    8363    8364    8371    8356    8357    8358    8359    8360    8361
    8362    8363    8365    8366    8367    8371    8372    8357    8358    8359
    8360    8361    8362    8366    8368    8369    8370    8372    8373    8374
    8375    8358    8359    8363    8364    8365    8371    8363    8364    8360
    8363    8364    8365    8366    8367    8371    8361    8363    8365    8366
    8367    8368    8372    8362    8366    8367    8368    8369    8370    8372
    8373    8374    8376    8377    8378    8366    8368    8369    8370    8373
    8375    8376    8364    8365    8371    8371    8371    8367    8368    8372
    8373    8374    8372    8369    8372    8373    8374    8375    8376    8377
    8378    8379    8380    8381    8370    8373    8374    8375    8376    8379
    8380    8373    8375       0       0    8374    8375    8376    8377    8378
    8379    8380    8382    8383    8384    8376    8377    8378    8379    8381
    8382    8376    8377    8379    8380    8381    8382    8383    8384    8385
    8386    8387    8378    8379    8380    8381    8382    8385    8386    8379
    8381    8380    8381    8382    8383    8384    8385    8386    8388    8382
    8383    8384    8385    8387    8388    8382    8383    8385    8386    8387
    8388    8384    8385    8386    8387    8388    8385    8387    8386    8387
    8388    8388    8388       0    8390    8391    8392    8393    8394    8395
    8396    8397    8398    8399    8400    8401    8402    8403    8404    8405
    8406    8391    8392    8393    8394    8395    8396    8397    8398    8399
    8400    8407    8392    8393    8394    8395    8396    8397    8398    8399
    8401    8402    8403    8407    8408    8393    8394    8395    8396    8397
    8398    8402    8404    8405    8406    8408    8409    8410    8411    8394
    8395    8399    8400    8401    8407    8399    8400    8396    8399    8400
    8401    8402    8403    8407    8397    8399    8401    8402    8403    8404
    8408    8398    8402    8403    8404    8405    8406    8408    8409    8410
    8412    8413    8414    8402    8404    8405    8406    8409    8411    8412
    8400    8401    8407    8407    8407    8403    8404    8408    8409    8410
    8408    8405    8408    8409    8410    8411    8412    8413    8414    8415
    8416    8417    8406    8409    8410    8411    8412    8415    8416    8409
    8411       0       0    8410    8411    8412    8413    8414    8415    8416
    8418    8419    8420    8412    8413    8414    8415    8417    8418    8412
    8413    8415    8416    8417    8418    8419    8420    8421    8422    8423
    8414    8415    8416    8417    8418    8421    8422    8415    8417    8416
    8417    8418    8419    8420    8421    8422    8424    8418    8419    8420
    8421    8423    8424    8418    8419    8421    8422    8423    8424    8420
    8421    8422    8423    8424    8421    8423    8422    8423    8424    8424
    8424       0    8426    8427    8428    8429    8430    8431    8432    8433
    8434    8435    8436    8437    8438    8439    8440    8441    8442    8427
    8428    8429    8430    8431    8432    8433    8434    8435    8436    8443
    8428    8429    8430    8431    8432    8433    8434    8435    8437    8438
    8439    8443    8444    8429    8430    8431    8432    8433    8434    8438
    8440    8441    8442    8444    8445    8446    8447    8430    8431    8435
    8436    8437    8443    8435    8436    8432    8435    8436    8437    8438
    8439    8443    8433    8435    8437    8438    8439    8440    8444    8434
    8438    8439    8440    8441    8442    8444    8445    8446    8448    8449
    8450    8438    8440    8441    8442    8445    8447    8448    8436    8437
    8443    8443    8443    8439    8440    8444    8445    8446    8444    8441
    8444    8445    8446    8447    8448    8449    8450    8451    8452    8453
    8442    8445    8446    8447    8448    8451    8452    8445    8447       0
       0    8446    8447    8448    8449    8450    8451    8452    8454    8455
    8456    8448    8449    8450    8451    8453    8454    8448    8449    8451
    8452    8453    8454    8455    8456    8457    8458    8459    8450    8451
    8452    8453    8454    8457    8458    8451    8453    8452    8453    8454
    8455    8456    8457    8458    8460    8454    8455    8456    8457    8459
    8460    8454    8455    8457    8458    8459    8460    8456    8457    8458
    8459    8460    8457    8459    8458    8459    8460    8460    8460       0
    8462    8463    8464    8465    8466    8467    8468    8469    8470    8471
    8472    8473    8474    8475    8476    8477    8478    8463    8464    8465
    8466    8467    8468    8469    8470    8471    8472    8479    8464    8465
    8466    8467    8468    8469    8470    8471    8473    8474    8475    8479
    8480    8465    8466    8467    8468    8469    8470    8474    8476    8477
    8478    8480    8481    8482    8483    8466    8467    8471    8472    8473
    8479    8471    8472    8468    8471    8472    8473    8474    8475    8479
    8469    8471    8473    8474    8475    8476    8480    8470    8474    8475
    8476    8477    8478    8480    8481    8482    8484    8485    8486    8474
    8476    8477    8478    8481    8483    8484    8472    8473    8479    8479
    8479    8475    8476    8480    8481    8482    8480    8477    8480    8481
    8482    8483    8484    8485    8486    8487    8488    8489    8478    8481
    8482    8483    8484    8487    8488    8481    8483       0       0    8482
    8483    8484    8485    8486    8487    8488    8490    8491    8492    8484
    8485    8486    8487    8489    8490    8484    8485    8487    8488    8489
    8490    8491    8492    8493    8494    8495    8486    8487    8488    8489
    8490    8493    8494    8487    8489    8488    8489    8490    8491    8492
    8493    8494    8496    8490    8491    8492    8493    8495    8496    8490
    8491    8493    8494    8495    8496    8492    8493    8494    8495    8496
    8493    8495    8494    8495    8496    8496    8496       0    8498    8499
    8500    8501    8502    8503    8504    8505    8506    8507    8508    8509
    8510    8511    8512    8513    8514    8499    8500    8501    8502    8503
    8504    8505    8506    8507    8508    8515    8500    8501    8502    8503
    8504    8505    8506    8507    8509    8510    8511    8515    8516    8501
    8502    8503    8504    8505    8506    8510    8512    8513    8514    8516
    8517    8518    8519    8502    8503    8507    8508    8509    8515    8507
    8508    8504    8507    8508    8509    8510    8511    8515    8505    8507
    8509    8510    8511    8512    8516    8506    8510    8511    8512    8513
    8514    8516    8517    8518    8520    8521    8522    8510    8512    8513
    8514    8517    8519    8520    8508    8509    8515    8515    8515    8511
    8512    8516    8517    8518    8516    8513    8516    8517    8518    8519
    8520    8521    8522    8523    8524    8525    8514    8517    8518    8519
    8520    8523    8524    8517    8519       0       0    8518    8519    8520
    8521    8522    8523    8524    8526    8527    8528    8520    8521    8522
    8523    8525    8526    8520    8521    8523    8524    8525    8526    8527
    8528    8529    8530    8531    8522    8523    8524    8525    8526    8529
    8530    8523    8525    8524    8525    8526    8527    8528    8529    8530
    8532    8526    8527    8528    8529    8531    8532    8526    8527    8529
    8530    8531    8532    8528    8529    8530    8531    8532    8529    8531
    8530    8531    8532    8532    8532       0    8534    8535    8536    8537
    8538    8539    8540    8541    8542    8543    8544    8545    8546    8547
    8548    8549    8550    8535    8536    8537    8538    8539    8540    8541
    8542    8543    8544    8551    8536    8537    8538    8539    8540    8541
    8542    8543    8545    8546    8547    8551    8552    8537    8538    8539
    8540    8541    8542    8546    8548    8549    8550    8552    8553    8554
    8555    8538    8539    8543    8544    8545    8551    8543    8544    8540
    8543    8544    8545    8546    8547    8551    8541    8543    8545    8546
    8547    8548    8552    8542    8546    8547    8548    8549    8550    8552
    8553    8554    8556    8557    8558    8546    8548    8549    8550    8553
    8555    8556    8544    8545    8551    8551    8551    8547    8548    8552
    8553    8554    8552    8549    8552    8553    8554    8555    8556    8557
    8558    8559    8560    8561    8550    8553    8554    8555    8556    8559
    8560    8553    8555       0       0    8554    8555    8556    8557    8558
    8559    8560    8562    8563    8564    8556    8557    8558    8559    8561
    8562    8556    8557    8559    8560    8561    8562    8563    8564    8565
    8566    8567    8558    8559    8560    8561    8562    8565    8566    8559
    8561    8560    8561    8562    8563    8564    8565    8566    8568    8562
    8563    8564    8565    8567    8568    8562    8563    8565    8566    8567
    8568    8564    8565    8566    8567    8568    8565    8567    8566    8567
    8568    8568    8568       0    8570    8571    8572    8573    8574    8575
    8576    8577    8578    8579    8580    8581    8582    8583    8584    8585
    8586    8571    8572    8573    8574    8575    8576    8577    8578    8579
    8580    8587    8572    8573    8574    8575    8576    8577    8578    8579
    8581    8582    8583    8587    8588    8573    8574    8575    8576    8577
    8578    8582    8584    8585    8586    8588    8589    8590    8591    8574
    8575    8579    8580    8581    8587    8579    8580    8576    8579    8580
    8581    8582    8583    8587    8577    8579    8581    8582    8583    8584
    8588    8578    8582    8583    8584    8585    8586    8588    8589    8590
    8592    8593    8594    8582    8584    8585    8586    8589    8591    8592
    8580    8581    8587    8587    8587    8583    8584    8588    8589    8590
    8588    8585    8588    8589    8590    8591    8592    8593    8594    8595
    8596    8597    8586    8589    8590    8591    8592    8595    8596    8589
    8591       0       0    8590    8591    8592    8593    8594    8595    8596
    8598    8599    8600    8592    8593    8594    8595    8597    8598    8592
    8593    8595    8596    8597    8598    8599    8600    8601    8602    8603
    8594    8595    8596    8597    8598    8601    8602    8595    8597    8596
    8597    8598    8599    8600    8601    8602    8604    8598    8599    8600
    8601    8603    8604    8598    8599    8601    8602    8603    8604    8600
    8601    8602    8603    8604    8601    8603    8602    8603    8604    8604
    8604       0    8606    8607    8608    8609    8610    8611    8612    8613
    8614    8615    8616    8617    8618    8619    8620    8621    8622    8607
    8608    8609    8610    8611    8612    8613    8614    8615    8616    8623
    8608    8609    8610    8611    8612    8613    8614    8615    8617    8618
    8619    8623    8624    8609    8610    8611    8612    8613    8614    8618
    8620    8621    8622    8624    8625    8626    8627    8610    8611    8615
    8616    8617    8623    8615    8616    8612    8615    8616    8617    8618
    8619    8623    8613    8615    8617    8618    8619    8620    8624    8614
    8618    8619    8620    8621    8622    8624    8625    8626    8628    8629
    8630    8618    8620    8621    8622    8625    8627    8628    8616    8617
    8623    8623    8623    8619    8620    8624    8625    8626    8624    8621
    8624    8625    8626    8627    8628    8629    8630    8631    8632    8633
    8622    8625    8626    8627    8628    8631    8632    8625    8627       0
       0    8626    8627    8628    8629    8630    8631    8632    8634    8635
    8636    8628    8629    8630    8631    8633    8634    8628    8629    8631
    8632    8633    8634    8635    8636    8637    8638    8639    8630    8631
    8632    8633    8634    8637    8638    8631    8633    8632    8633    8634
    8635    8636    8637    8638    8640    8634    8635    8636    8637    8639
    8640    8634    8635    8637    8638    8639    8640    8636    8637    8638
    8639    8640    8637    8639    8638    8639    8640    8640    8640       0
    8642    8643    8644    8645    8646    8647    8648    8649    8650    8651
    8652    8653    8654    8655    8656    8657    8658    8643    8644    8645
    8646    8647    8648    8649    8650    8651    8652    8659    8644    8645
    8646    8647    8648    8649    8650    8651    8653    8654    8655    8659
    8660    8645    8646    8647    8648    8649    8650    8654    8656    8657
    8658    8660    8661    8662    8663    8646    8647    8651    8652    8653
    8659    8651    8652    8648    8651    8652    8653    8654    8655    8659
    8649    8651    8653    8654    8655    8656    8660    8650    8654    8655
    8656    8657    8658    8660    8661    8662    8664    8665    8666    8654
    8656    8657    8658    8661    8663    8664    8652    8653    8659    8659
    8659    8655    8656    8660    8661    8662    8660    8657    8660    8661
    8662    8663    8664    8665    8666    8667    8668    8669    8658    8661
    8662    8663    8664    8667    8668    8661    8663       0       0    8662
    8663    8664    8665    8666    8667    8668    8670    8671    8672    8664
    8665    8666    8667    8669    8670    8664    8665    8667    8668    8669
    8670    8671    8672    8673    8674    8675    8666    8667    8668    8669
    8670    8673    8674    8667    8669    8668    8669    8670    8671    8672
    8673    8674    8676    8670    8671    8672    8673    8675    8676    8670
    8671    8673    8674    8675    8676    8672    8673    8674    8675    8676
    8673    8675    8674    8675    8676    8676    8676       0    8678    8679
    8680    8681    8682    8683    8684    8685    8686    8687    8688    8689
    8690    8691    8692    8693    8694    8679    8680    8681    8682    8683
    8684    8685    8686    8687    8688    8695    8680    8681    8682    8683
    8684    8685    8686    8687    8689    8690    8691    8695    8696    8681
    8682    8683    8684    8685    8686    8690    8692    8693    8694    8696
    8697    8698    8699    8682    8683    8687    8688    8689    8695    8687
    8688    8684    8687    8688    8689    8690    8691    8695    8685    8687
    8689    8690    8691    8692    8696    8686    8690    8691    8692    8693
    8694    8696    8697    8698    8700    8701    8702    8690    8692    8693
    8694    8697    8699    8700    8688    8689    8695    8695    8695    8691
    8692    8696    8697    8698    8696    8693    8696    8697    8698    8699
    8700    8701    8702    8703    8704    8705    8694    8697    8698    8699
    8700    8703    8704    8697    8699       0       0    8698    8699    8700
    8701    8702    8703    8704    8706    8707    8708    8700    8701    8702
    8703    8705    8706    8700    8701    8703    8704    8705    8706    8707
    8708    8709    8710    8711    8702    8703    8704    8705    8706    8709
    8710    8703    8705    8704    8705    8706    8707    8708    8709    8710
    8712    8706    8707    8708    8709    8711    8712    8706    8707    8709
    8710    8711    8712    8708    8709    8710    8711    8712    8709    8711
    8710    8711    8712    8712    8712       0    8714    8715    8716    8717
    8718    8719    8720    8721    8722    8723    8724    8725    8726    8727
    8728    8729    8730    8715    8716    8717    8718    8719    8720    8721
    8722    8723    8724    8731    8716    8717    8718    8719    8720    8721
    8722    8723    8725    8726    8727    8731    8732    8717    8718    8719
    8720    8721    8722    8726    8728    8729    8730    8732    8733    8734
    8735    8718    8719    8723    8724    8725    8731    8723    8724    8720
    8723    8724    8725    8726    8727    8731    8721    8723    8725    8726
    8727    8728    8732    8722    8726    8727    8728    8729    8730    8732
    8733    8734    8736    8737    8738    8726    8728    8729    8730    8733
    8735    8736    8724    8725    8731    8731    8731    8727    8728    8732
    8733    8734    8732    8729    8732    8733    8734    8735    8736    8737
    8738    8739    8740    8741    8730    8733    8734    8735    8736    8739
    8740    8733    8735       0       0    8734    8735    8736    8737    8738
    8739    8740    8742    8743    8744    8736    8737    8738    8739    8741
    8742    8736    8737    8739    8740    8741    8742    8743    8744    8745
    8746    8747    8738    8739    8740    8741    8742    8745    8746    8739
    8741    8740    8741    8742    8743    8744    8745    8746    8748    8742
    8743    8744    8745    8747    8748    8742    8743    8745    8746    8747
    8748    8744    8745    8746    8747    8748    8745    8747    8746    8747
    8748    8748    8748       0    8750    8751    8752    8753    8754    8755
    8756    8757    8758    8759    8760    8761    8762    8763    8764    8765
    8766    8751    8752    8753    8754    8755    8756    8757    8758    8759
    8760    8767    8752    8753    8754    8755    8756    8757    8758    8759
    8761    8762    8763    8767    8768    8753    8754    8755    8756    8757
    8758    8762    8764    8765    8766    8768    8769    8770    8771    8754
    8755    8759    8760    8761    8767    8759    8760    8756    8759    8760
    8761    8762    8763    8767    8757    8759    8761    8762    8763    8764
    8768    8758    8762    8763    8764    8765    8766    8768    8769    8770
    8772    8773    8774    8762    8764    8765    8766    8769    8771    8772
    8760    8761    8767    8767    8767    8763    8764    8768    8769    8770
    8768    8765    8768    8769    8770    8771    8772    8773    8774    8775
    8776    8777    8766    8769    8770    8771    8772    8775    8776    8769
    8771       0       0    8770    8771    8772    8773    8774    8775    8776
    8778    8779    8780    8772    8773    8774    8775    8777    8778    8772
    8773    8775    8776    8777    8778    8779    8780    8781    8782    8783
    8774    8775    8776    8777    8778    8781    8782    8775    8777    8776
    8777    8778    8779    8780    8781    8782    8784    8778    8779    8780
    8781    8783    8784    8778    8779    8781    8782    8783    8784    8780
    8781    8782    8783    8784    8781    8783    8782    8783    8784    8784
    8784       0    8786    8787    8788    8789    8790    8791    8792    8793
    8794    8795    8796    8797    8798    8799    8800    8801    8802    8787
    8788    8789    8790    8791    8792    8793    8794    8795    8796    8803
    8788    8789    8790    8791    8792    8793    8794    8795    8797    8798
    8799    8803    8804    8789    8790    8791    8792    8793    8794    8798
    8800    8801    8802    8804    8805    8806    8807    8790    8791    8795
    8796    8797    8803    8795    8796    8792    8795    8796    8797    8798
    8799    8803    8793    8795    8797    8798    8799    8800    8804    8794
    8798    8799    8800    8801    8802    8804    8805    8806    8808    8809
    8810    8798    8800    8801    8802    8805    8807    8808    8796    8797
    8803    8803    8803    8799    8800    8804    8805    8806    8804    8801
    8804    8805    8806    8807    8808    8809    8810    8811    8812    8813
    8802    8805    8806    8807    8808    8811    8812    8805    8807       0
       0    8806    8807    8808    8809    8810    8811    8812    8814    8815
    8816    8808    8809    8810    8811    8813    8814    8808    8809    8811
    8812    8813    8814    8815    8816    8817    8818    8819    8810    8811
    8812    8813    8814    8817    8818    8811    8813    8812    8813    8814
    8815    8816    8817    8818    8820    8814    8815    8816    8817    8819
    8820    8814    8815    8817    8818    8819    8820    8816    8817    8818
    8819    8820    8817    8819    8818    8819    8820    8820    8820       0
    8822    8823    8824    8825    8826    8827    8828    8829    8830    8831
    8832    8833    8834    8835    8836    8837    8838    8823    8824    8825
    8826    8827    8828    8829    8830    8831    8832    8839    8824    8825
    8826    8827    8828    8829    8830    8831    8833    8834    8835    8839
    8840    8825    8826    8827    8828    8829    8830    8834    8836    8837
    8838    8840    8841    8842    8843    8826    8827    8831    8832    8833
    8839    8831    8832    8828    8831    8832    8833    8834    8835    8839
    8829    8831    8833    8834    8835    8836    8840    8830    8834    8835
    8836    8837    8838    8840    8841    8842    8844    8845    8846    8834
    8836    8837    8838    8841    8843    8844    8832    8833    8839    8839
    8839    8835    8836    8840    8841    8842    8840    8837    8840    8841
    8842    8843    8844    8845    8846    8847    8848    8849    8838    8841
    8842    8843    8844    8847    8848    8841    8843       0       0    8842
    8843    8844    8845    8846    8847    8848    8850    8851    8852    8844
    8845    8846    8847    8849    8850    8844    8845    8847    8848    8849
    8850    8851    8852    8853    8854    8855    8846    8847    8848    8849
    8850    8853    8854    8847    8849    8848    8849    8850    8851    8852
    8853    8854    8856    8850    8851    8852    8853    8855    8856    8850
    8851    8853    8854    8855    8856    8852    8853    8854    8855    8856
    8853    8855    8854    8855    8856    8856    8856       0    8858    8859
    8860    8861    8862    8863    8864    8865    8866    8867    8868    8869
    8870    8871    8872    8873    8874    8859    8860    8861    8862    8863
    8864    8865    8866    8867    8868    8875    8860    8861    8862    8863
    8864    8865    8866    8867    8869    8870    8871    8875    8876    8861
    8862    8863    8864    8865    8866    8870    8872    8873    8874    8876
    8877    8878    8879    8862    8863    8867    8868    8869    8875    8867
    8868    8864    8867    8868    8869    8870    8871    8875    8865    8867
    8869    8870    8871    8872    8876    8866    8870    8871    8872    8873
    8874    8876    8877    8878    8880    8881    8882    8870    8872    8873
    8874    8877    8879    8880    8868    8869    8875    8875    8875    8871
    8872    8876    8877    8878    8876    8873    8876    8877    8878    8879
    8880    8881    8882    8883    8884    8885    8874    8877    8878    8879
    8880    8883    8884    8877    8879       0       0    8878    8879    8880
    8881    8882    8883    8884    8886    8887    8888    8880    8881    8882
    8883    8885    8886    8880    8881    8883    8884    8885    8886    8887
    8888    8889    8890    8891    8882    8883    8884    8885    8886    8889
    8890    8883    8885    8884    8885    8886    8887    8888    8889    8890
    8892    8886    8887    8888    8889    8891    8892    8886    8887    8889
    8890    8891    8892    8888    8889    8890    8891    8892    8889    8891
    8890    8891    8892    8892    8892       0    8894    8895    8896    8897
    8898    8899    8900    8901    8902    8903    8904    8905    8906    8907
    8908    8909    8910    8895    8896    8897    8898    8899    8900    8901
    8902    8903    8904    8911    8896    8897    8898    8899    8900    8901
    8902    8903    8905    8906    8907    8911    8912    8897    8898    8899
    8900    8901    8902    8906    8908    8909    8910    8912    8913    8914
    8915    8898    8899    8903    8904    8905    8911    8903    8904    8900
    8903    8904    8905    8906    8907    8911    8901    8903    8905    8906
    8907    8908    8912    8902    8906    8907    8908    8909    8910    8912
    8913    8914    8916    8917    8918    8906    8908    8909    8910    8913
    8915    8916    8904    8905    8911    8911    8911    8907    8908    8912
    8913    8914    8912    8909    8912    8913    8914    8915    8916    8917
    8918    8919    8920    8921    8910    8913    8914    8915    8916    8919
    8920    8913    8915       0       0    8914    8915    8916    8917    8918
    8919    8920    8922    8923    8924    8916    8917    8918    8919    8921
    8922    8916    8917    8919    8920    8921    8922    8923    8924    8925
    8926    8927    8918    8919    8920    8921    8922    8925    8926    8919
    8921    8920    8921    8922    8923    8924    8925    8926    8928    8922
    8923    8924    8925    8927    8928    8922    8923    8925    8926    8927
    8928    8924    8925    8926    8927    8928    8925    8927    8926    8927
    8928    8928    8928       0    8930    8931    8932    8933    8934    8935
    8936    8937    8938    8939    8940    8941    8942    8943    8944    8945
    8946    8931    8932    8933    8934    8935    8936    8937    8938    8939
    8940    8947    8932    8933    8934    8935    8936    8937    8938    8939
    8941    8942    8943    8947    8948    8933    8934    8935    8936    8937
    8938    8942    8944    8945    8946    8948    8949    8950    8951    8934
    8935    8939    8940    8941    8947    8939    8940    8936    8939    8940
    8941    8942    8943    8947    8937    8939    8941    8942    8943    8944
    8948    8938    8942    8943    8944    8945    8946    8948    8949    8950
    8952    8953    8954    8942    8944    8945    8946    8949    8951    8952
    8940    8941    8947    8947    8947    8943    8944    8948    8949    8950
    8948    8945    8948    8949    8950    8951    8952    8953    8954    8955
    8956    8957    8946    8949    8950    8951    8952    8955    8956    8949
    8951       0       0    8950    8951    8952    8953    8954    8955    8956
    8958    8959    8960    8952    8953    8954    8955    8957    8958    8952
    8953    8955    8956    8957    8958    8959    8960    8961    8962    8963
    8954    8955    8956    8957    8958    8961    8962    8955    8957    8956
    8957    8958    8959    8960    8961    8962    8964    8958    8959    8960
    8961    8963    8964    8958    8959    8961    8962    8963    8964    8960
    8961    8962    8963    8964    8961    8963    8962    8963    8964    8964
    8964       0    8966    8967    8968    8969    8970    8971    8972    8973
    8974    8975    8976    8977    8978    8979    8980    8981    8982    8967
    8968    8969    8970    8971    8972    8973    8974    8975    8976    8983
    8968    8969    8970    8971    8972    8973    8974    8975    8977    8978
    8979    8983    8984    8969    8970    8971    8972    8973    8974    8978
    8980    8981    8982    8984    8985    8986    8987    8970    8971    8975
    8976    8977    8983    8975    8976    8972    8975    8976    8977    8978
    8979    8983    8973    8975    8977    8978    8979    8980    8984    8974
    8978    8979    8980    8981    8982    8984    8985    8986    8988    8989
    8990    8978    8980    8981    8982    8985    8987    8988    8976    8977
    8983    8983    8983    8979    8980    8984    8985    8986    8984    8981
    8984    8985    8986    8987    8988    8989    8990    8991    8992    8993
    8982    8985    8986    8987    8988    8991    8992    8985    8987       0
       0    8986    8987    8988    8989    8990    8991    8992    8994    8995
    8996    8988    8989    8990    8991    8993    8994    8988    8989    8991
    8992    8993    8994    8995    8996    8997    8998    8999    8990    8991
    8992    8993    8994    8997    8998    8991    8993    8992    8993    8994
    8995    8996    8997    8998    9000    8994    8995    8996    8997    8999
    9000    8994    8995    8997    8998    8999    9000    8996    8997    8998
    8999    9000    8997    8999    8998    8999    9000    9000    9000       0
    9002    9003    9004    9005    9006    9007    9008    9009    9010    9011
    9012    9013    9014    9015    9016    9017    9018    9003    9004    9005
    9006    9007    9008    9009    9010    9011    9012    9019    9004    9005
    9006    9007    9008    9009    9010    9011    9013    9014    9015    9019
    9020    9005    9006    9007    9008    9009    9010    9014    9016    9017
    9018    9020    9021    9022    9023    9006    9007    9011    9012    9013
    9019    9011    9012    9008    9011    9012    9013    9014    9015    9019
    9009    9011    9013    9014    9015    9016    9020    9010    9014    9015
    9016    9017    9018    9020    9021    9022    9024    9025    9026    9014
    9016    9017    9018    9021    9023    9024    9012    9013    9019    9019
    9019    9015    9016    9020    9021    9022    9020    9017    9020    9021
    9022    9023    9024    9025    9026    9027    9028    9029    9018    9021
    9022    9023    9024    9027    9028    9021    9023       0       0    9022
    9023    9024    9025    9026    9027    9028    9030    9031    9032    9024
    9025    9026    9027    9029    9030    9024    9025    9027    9028    9029
    9030    9031    9032    9033    9034    9035    9026    9027    9028    9029
    9030    9033    9034    9027    9029    9028    9029    9030    9031    9032
    9033    9034    9036    9030    9031    9032    9033    9035    9036    9030
    9031    9033    9034    9035    9036    9032    9033    9034    9035    9036
    9033    9035    9034    9035    9036    9036    9036       0    9038    9039
    9040    9041    9042    9043    9044    9045    9046    9047    9048    9049
    9050    9051    9052    9053    9054    9039    9040    9041    9042    9043
    9044    9045    9046    9047    9048    9055    9040    9041    9042    9043
    9044    9045    9046    9047    9049    9050    9051    9055    9056    9041
    9042    9043    9044    9045    9046    9050    9052    9053    9054    9056
    9057    9058    9059    9042    9043    9047    9048    9049    9055    9047
    9048    9044    9047    9048    9049    9050    9051    9055    9045    9047
    9049    9050    9051    9052    9056    9046    9050    9051    9052    9053
    9054    9056    9057    9058    9060    9061    9062    9050    9052    9053
    9054    9057    9059    9060    9048    9049    9055    9055    9055    9051
    9052    9056    9057    9058    9056    9053    9056    9057    9058    9059
    9060    9061    9062    9063    9064    9065    9054    9057    9058    9059
    9060    9063    9064    9057    9059       0       0    9058    9059    9060
    9061    9062    9063    9064    9066    9067    9068    9060    9061    9062
    9063    9065    9066    9060    9061    9063    9064    9065    9066    9067
    9068    9069    9070    9071    9062    9063    9064    9065    9066    9069
    9070    9063    9065    9064    9065    9066    9067    9068    9069    9070
    9072    9066    9067    9068    9069    9071    9072    9066    9067    9069
    9070    9071    9072    9068    9069    9070    9071    9072    9069    9071
    9070    9071    9072    9072    9072       0    9074    9075    9076    9077
    9078    9079    9080    9081    9082    9083    9084    9085    9086    9087
    9088    9089    9090    9075    9076    9077    9078    9079    9080    9081
    9082    9083    9084    9091    9076    9077    9078    9079    9080    9081
    9082    9083    9085    9086    9087    9091    9092    9077    9078    9079
    9080    9081    9082    9086    9088    9089    9090    9092    9093    9094
    9095    9078    9079    9083    9084    9085    9091    9083    9084    9080
    9083    9084    9085    9086    9087    9091    9081    9083    9085    9086
    9087    9088    9092    9082    9086    9087    9088    9089    9090    9092
    9093    9094    9096    9097    9098    9086    9088    9089    9090    9093
    9095    9096    9084    9085    9091    9091    9091    9087    9088    9092
    9093    9094    9092    9089    9092    9093    9094    9095    9096    9097
    9098    9099    9100    9101    9090    9093    9094    9095    9096    9099
    9100    9093    9095       0       0    9094    9095    9096    9097    9098
    9099    9100    9102    9103    9104    9096    9097    9098    9099    9101
    9102    9096    9097    9099    9100    9101    9102    9103    9104    9105
    9106    9107    9098    9099    9100    9101    9102    9105    9106    9099
    9101    9100    9101    9102    9103    9104    9105    9106    9108    9102
    9103    9104    9105    9107    9108    9102    9103    9105    9106    9107
    9108    9104    9105    9106    9107    9108    9105    9107    9106    9107
    9108    9108    9108       0    9110    9111    9112    9113    9114    9115
    9116    9117    9118    9119    9120    9121    9122    9123    9124    9125
    9126    9111    9112    9113    9114    9115    9116    9117    9118    9119
    9120    9127    9112    9113    9114    9115    9116    9117    9118    9119
    9121    9122    9123    9127    9128    9113    9114    9115    9116    9117
    9118    9122    9124    9125    9126    9128    9129    9130    9131    9114
    9115    9119    9120    9121    9127    9119    9120    9116    9119    9120
    9121    9122    9123    9127    9117    9119    9121    9122    9123    9124
    9128    9118    9122    9123    9124    9125    9126    9128    9129    9130
    9132    9133    9134    9122    9124    9125    9126    9129    9131    9132
    9120    9121    9127    9127    9127    9123    9124    9128    9129    9130
    9128    9125    9128    9129    9130    9131    9132    9133    9134    9135
    9136    9137    9126    9129    9130    9131    9132    9135    9136    9129
    9131       0       0    9130    9131    9132    9133    9134    9135    9136
    9138    9139    9140    9132    9133    9134    9135    9137    9138    9132
    9133    9135    9136    9137    9138    9139    9140    9141    9142    9143
    9134    9135    9136    9137    9138    9141    9142    9135    9137    9136
    9137    9138    9139    9140    9141    9142    9144    9138    9139    9140
    9141    9143    9144    9138    9139    9141    9142    9143    9144    9140
    9141    9142    9143    9144    9141    9143    9142    9143    9144    9144
    9144       0    9146    9147    9148    9149    9150    9151    9152    9153
    9154    9155    9156    9157    9158    9159    9160    9161    9162    9147
    9148    9149    9150    9151    9152    9153    9154    9155    9156    9163
    9148    9149    9150    9151    9152    9153    9154    9155    9157    9158
    9159    9163    9164    9149    9150    9151    9152    9153    9154    9158
    9160    9161    9162    9164    9165    9166    9167    9150    9151    9155
    9156    9157    9163    9155    9156    9152    9155    9156    9157    9158
    9159    9163    9153    9155    9157    9158    9159    9160    9164    9154
    9158    9159    9160    9161    9162    9164    9165    9166    9168    9169
    9170    9158    9160    9161    9162    9165    9167    9168    9156    9157
    9163    9163    9163    9159    9160    9164    9165    9166    9164    9161
    9164    9165    9166    9167    9168    9169    9170    9171    9172    9173
    9162    9165    9166    9167    9168    9171    9172    9165    9167       0
       0    9166    9167    9168    9169    9170    9171    9172    9174    9175
    9176    9168    9169    9170    9171    9173    9174    9168    9169    9171
    9172    9173    9174    9175    9176    9177    9178    9179    9170    9171
    9172    9173    9174    9177    9178    9171    9173    9172    9173    9174
    9175    9176    9177    9178    9180    9174    9175    9176    9177    9179
    9180    9174    9175    9177    9178    9179    9180    9176    9177    9178
    9179    9180    9177    9179    9178    9179    9180    9180    9180       0
    9182    9183    9184    9185    9186    9187    9188    9189    9190    9191
    9192    9193    9194    9195    9196    9197    9198    9183    9184    9185
    9186    9187    9188    9189    9190    9191    9192    9199    9184    9185
    9186    9187    9188    9189    9190    9191    9193    9194    9195    9199
    9200    9185    9186    9187    9188    9189    9190    9194    9196    9197
    9198    9200    9201    9202    9203    9186    9187    9191    9192    9193
    9199    9191    9192    9188    9191    9192    9193    9194    9195    9199
    9189    9191    9193    9194    9195    9196    9200    9190    9194    9195
    9196    9197    9198    9200    9201    9202    9204    9205    9206    9194
    9196    9197    9198    9201    9203    9204    9192    9193    9199    9199
    9199    9195    9196    9200    9201    9202    9200    9197    9200    9201
    9202    9203    9204    9205    9206    9207    9208    9209    9198    9201
    9202    9203    9204    9207    9208    9201    9203       0       0    9202
    9203    9204    9205    9206    9207    9208    9210    9211    9212    9204
    9205    9206    9207    9209    9210    9204    9205    9207    9208    9209
    9210    9211    9212    9213    9214    9215    9206    9207    9208    9209
    9210    9213    9214    9207    9209    9208    9209    9210    9211    9212
    9213    9214    9216    9210    9211    9212    9213    9215    9216    9210
    9211    9213    9214    9215    9216    9212    9213    9214    9215    9216
    9213    9215    9214    9215    9216    9216    9216       0    9218    9219
    9220    9221    9222    9223    9224    9225    9226    9227    9228    9229
    9230    9231    9232    9233    9234    9219    9220    9221    9222    9223
    9224    9225    9226    9227    9228    9235    9220    9221    9222    9223
    9224    9225    9226    9227    9229    9230    9231    9235    9236    9221
    9222    9223    9224    9225    9226    9230    9232    9233    9234    9236
    9237    9238    9239    9222    9223    9227    9228    9229    9235    9227
    9228    9224    9227    9228    9229    9230    9231    9235    9225    9227
    9229    9230    9231    9232    9236    9226    9230    9231    9232    9233
    9234    9236    9237    9238    9240    9241    9242    9230    9232    9233
    9234    9237    9239    9240    9228    9229    9235    9235    9235    9231
    9232    9236    9237    9238    9236    9233    9236    9237    9238    9239
    9240    9241    9242    9243    9244    9245    9234    9237    9238    9239
    9240    9243    9244    9237    9239       0       0    9238    9239    9240
    9241    9242    9243    9244    9246    9247    9248    9240    9241    9242
    9243    9245    9246    9240    9241    9243    9244    9245    9246    9247
    9248    9249    9250    9251    9242    9243    9244    9245    9246    9249
    9250    9243    9245    9244    9245    9246    9247    9248    9249    9250
    9252    9246    9247    9248    9249    9251    9252    9246    9247    9249
    9250    9251    9252    9248    9249    9250    9251    9252    9249    9251
    9250    9251    9252    9252    9252       0    9254    9255    9256    9257
    9258    9259    9260    9261    9262    9263    9264    9265    9266    9267
    9268    9269    9270    9255    9256    9257    9258    9259    9260    9261
    9262    9263    9264    9271    9256    9257    9258    9259    9260    9261
    9262    9263    9265    9266    9267    9271    9272    9257    9258    9259
    9260    9261    9262    9266    9268    9269    9270    9272    9273    9274
    9275    9258    9259    9263    9264    9265    9271    9263    9264    9260
    9263    9264    9265    9266    9267    9271    9261    9263    9265    9266
    9267    9268    9272    9262    9266    9267    9268    9269    9270    9272
    9273    9274    9276    9277    9278    9266    9268    9269    9270    9273
    9275    9276    9264    9265    9271    9271    9271    9267    9268    9272
    9273    9274    9272    9269    9272    9273    9274    9275    9276    9277
    9278    9279    9280    9281    9270    9273    9274    9275    9276    9279
    9280    9273    9275       0       0    9274    9275    9276    9277    9278
    9279    9280    9282    9283    9284    9276    9277    9278    9279    9281
    9282    9276    9277    9279    9280    9281    9282    9283    9284    9285
    9286    9287    9278    9279    9280    9281    9282    9285    9286    9279
    9281    9280    9281    9282    9283    9284    9285    9286    9288    9282
    9283    9284    9285    9287    9288    9282    9283    9285    9286    9287
    9288    9284    9285    9286    9287    9288    9285    9287    9286    9287
    9288    9288    9288       0    9290    9291    9292    9293    9294    9295
    9296    9297    9298    9299    9300    9301    9302    9303    9304    9305
    9306    9291    9292    9293    9294    9295    9296    9297    9298    9299
    9300    9307    9292    9293    9294    9295    9296    9297    9298    9299
    9301    9302    9303    9307    9308    9293    9294    9295    9296    9297
    9298    9302    9304    9305    9306    9308    9309    9310    9311    9294
    9295    9299    9300    9301    9307    9299    9300    9296    9299    9300
    9301    9302    9303    9307    9297    9299    9301    9302    9303    9304
    9308    9298    9302    9303    9304    9305    9306    9308    9309    9310
    9312    9313    9314    9302    9304    9305    9306    9309    9311    9312
    9300    9301    9307    9307    9307    9303    9304    9308    9309    9310
    9308    9305    9308    9309    9310    9311    9312    9313    9314    9315
    9316    9317    9306    9309    9310    9311    9312    9315    9316    9309
    9311       0       0    9310    9311    9312    9313    9314    9315    9316
    9318    9319    9320    9312    9313    9314    9315    9317    9318    9312
    9313    9315    9316    9317    9318    9319    9320    9321    9322    9323
    9314    9315    9316    9317    9318    9321    9322    9315    9317    9316
    9317    9318    9319    9320    9321    9322    9324    9318    9319    9320
    9321    9323    9324    9318    9319    9321    9322    9323    9324    9320
    9321    9322    9323    9324    9321    9323    9322    9323    9324    9324
    9324       0    9326    9327    9328    9329    9330    9331    9332    9333
    9334    9335    9336    9337    9338    9339    9340    9341    9342    9327
    9328    9329    9330    9331    9332    9333    9334    9335    9336    9343
    9328    9329    9330    9331    9332    9333    9334    9335    9337    9338
    9339    9343    9344    9329    9330    9331    9332    9333    9334    9338
    9340    9341    9342    9344    9345    9346    9347    9330    9331    9335
    9336    9337    9343    9335    9336    9332    9335    9336    9337    9338
    9339    9343    9333    9335    9337    9338    9339    9340    9344    9334
    9338    9339    9340    9341    9342    9344    9345    9346    9348    9349
    9350    9338    9340    9341    9342    9345    9347    9348    9336    9337
    9343    9343    9343    9339    9340    9344    9345    9346    9344    9341
    9344    9345    9346    9347    9348    9349    9350    9351    9352    9353
    9342    9345    9346    9347    9348    9351    9352    9345    9347       0
       0    9346    9347    9348    9349    9350    9351    9352    9354    9355
    9356    9348    9349    9350    9351    9353    9354    9348    9349    9351
    9352    9353    9354    9355    9356    9357    9358    9359    9350    9351
    9352    9353    9354    9357    9358    9351    9353    9352    9353    9354
    9355    9356    9357    9358    9360    9354    9355    9356    9357    9359
    9360    9354    9355    9357    9358    9359    9360    9356    9357    9358
    9359    9360    9357    9359    9358    9359    9360    9360    9360       0
    9362    9363    9364    9365    9366    9367    9368    9369    9370    9371
    9372    9373    9374    9375    9376    9377    9378    9363    9364    9365
    9366    9367    9368    9369    9370    9371    9372    9379    9364    9365
    9366    9367    9368    9369    9370    9371    9373    9374    9375    9379
    9380    9365    9366    9367    9368    9369    9370    9374    9376    9377
    9378    9380    9381    9382    9383    9366    9367    9371    9372    9373
    9379    9371    9372    9368    9371    9372    9373    9374    9375    9379
    9369    9371    9373    9374    9375    9376    9380    9370    9374    9375
    9376    9377    9378    9380    9381    9382    9384    9385    9386    9374
    9376    9377    9378    9381    9383    9384    9372    9373    9379    9379
    9379    9375    9376    9380    9381    9382    9380    9377    9380    9381
    9382    9383    9384    9385    9386    9387    9388    9389    9378    9381
    9382    9383    9384    9387    9388    9381    9383       0       0    9382
    9383    9384    9385    9386    9387    9388    9390    9391    9392    9384
    9385    9386    9387    9389    9390    9384    9385    9387    9388    9389
    9390    9391    9392    9393    9394    9395    9386    9387    9388    9389
    9390    9393    9394    9387    9389    9388    9389    9390    9391    9392
    9393    9394    9396    9390    9391    9392    9393    9395    9396    9390
    9391    9393    9394    9395    9396    9392    9393    9394    9395    9396
    9393    9395    9394    9395    9396    9396    9396       0    9398    9399
    9400    9401    9402    9403    9404    9405    9406    9407    9408    9409
    9410    9411    9412    9413    9414    9399    9400    9401    9402    9403
    9404    9405    9406    9407    9408    9415    9400    9401    9402    9403
    9404    9405    9406    9407    9409    9410    9411    9415    9416    9401
    9402    9403    9404    9405    9406    9410    9412    9413    9414    9416
    9417    9418    9419    9402    9403    9407    9408    9409    9415    9407
    9408    9404    9407    9408    9409    9410    9411    9415    9405    9407
    9409    9410    9411    9412    9416    9406    9410    9411    9412    9413
    9414    9416    9417    9418    9420    9421    9422    9410    9412    9413
    9414    9417    9419    9420    9408    9409    9415    9415    9415    9411
    9412    9416    9417    9418    9416    9413    9416    9417    9418    9419
    9420    9421    9422    9423    9424    9425    9414    9417    9418    9419
    9420    9423    9424    9417    9419       0       0    9418    9419    9420
    9421    9422    9423    9424    9426    9427    9428    9420    9421    9422
    9423    9425    9426    9420    9421    9423    9424    9425    9426    9427
    9428    9429    9430    9431    9422    9423    9424    9425    9426    9429
    9430    9423    9425    9424    9425    9426    9427    9428    9429    9430
    9432    9426    9427    9428    9429    9431    9432    9426    9427    9429
    9430    9431    9432    9428    9429    9430    9431    9432    9429    9431
    9430    9431    9432    9432    9432       0    9434    9435    9436    9437
    9438    9439    9440    9441    9442    9443    9444    9445    9446    9447
    9448    9449    9450    9435    9436    9437    9438    9439    9440    9441
    9442    9443    9444    9451    9436    9437    9438    9439    9440    9441
    9442    9443    9445    9446    9447    9451    9452    9437    9438    9439
    9440    9441    9442    9446    9448    9449    9450    9452    9453    9454
    9455    9438    9439    9443    9444    9445    9451    9443    9444    9440
    9443    9444    9445    9446    9447    9451    9441    9443    9445    9446
    9447    9448    9452    9442    9446    9447    9448    9449    9450    9452
    9453    9454    9456    9457    9458    9446    9448    9449    9450    9453
    9455    9456    9444    9445    9451    9451    9451    9447    9448    9452
    9453    9454    9452    9449    9452    9453    9454    9455    9456    9457
    9458    9459    9460    9461    9450    9453    9454    9455    9456    9459
    9460    9453    9455       0       0    9454    9455    9456    9457    9458
    9459    9460    9462    9463    9464    9456    9457    9458    9459    9461
    9462    9456    9457    9459    9460    9461    9462    9463    9464    9465
    9466    9467    9458    9459    9460    9461    9462    9465    9466    9459
    9461    9460    9461    9462    9463    9464    9465    9466    9468    9462
    9463    9464    9465    9467    9468    9462    9463    9465    9466    9467
    9468    9464    9465    9466    9467    9468    9465    9467    9466    9467
    9468    9468    9468       0    9470    9471    9472    9473    9474    9475
    9476    9477    9478    9479    9480    9481    9482    9483    9484    9485
    9486    9471    9472    9473    9474    9475    9476    9477    9478    9479
    9480    9487    9472    9473    9474    9475    9476    9477    9478    9479
    9481    9482    9483    9487    9488    9473    9474    9475    9476    9477
    9478    9482    9484    9485    9486    9488    9489    9490    9491    9474
    9475    9479    9480    9481    9487    9479    9480    9476    9479    9480
    9481    9482    9483    9487    9477    9479    9481    9482    9483    9484
    9488    9478    9482    9483    9484    9485    9486    9488    9489    9490
    9492    9493    9494    9482    9484    9485    9486    9489    9491    9492
    9480    9481    9487    9487    9487    9483    9484    9488    9489    9490
    9488    9485    9488    9489    9490    9491    9492    9493    9494    9495
    9496    9497    9486    9489    9490    9491    9492    9495    9496    9489
    9491       0       0    9490    9491    9492    9493    9494    9495    9496
    9498    9499    9500    9492    9493    9494    9495    9497    9498    9492
    9493    9495    9496    9497    9498    9499    9500    9501    9502    9503
    9494    9495    9496    9497    9498    9501    9502    9495    9497    9496
    9497    9498    9499    9500    9501    9502    9504    9498    9499    9500
    9501    9503    9504    9498    9499    9501    9502    9503    9504    9500
    9501    9502    9503    9504    9501    9503    9502    9503    9504    9504
    9504       0    9506    9507    9508    9509    9510    9511    9512    9513
    9514    9515    9516    9517    9518    9519    9520    9521    9522    9507
    9508    9509    9510    9511    9512    9513    9514    9515    9516    9523
    9508    9509    9510    9511    9512    9513    9514    9515    9517    9518
    9519    9523    9524    9509    9510    9511    9512    9513    9514    9518
    9520    9521    9522    9524    9525    9526    9527    9510    9511    9515
    9516    9517    9523    9515    9516    9512    9515    9516    9517    9518
    9519    9523    9513    9515    9517    9518    9519    9520    9524    9514
    9518    9519    9520    9521    9522    9524    9525    9526    9528    9529
    9530    9518    9520    9521    9522    9525    9527    9528    9516    9517
    9523    9523    9523    9519    9520    9524    9525    9526    9524    9521
    9524    9525    9526    9527    9528    9529    9530    9531    9532    9533
    9522    9525    9526    9527    9528    9531    9532    9525    9527       0
       0    9526    9527    9528    9529    9530    9531    9532    9534    9535
    9536    9528    9529    9530    9531    9533    9534    9528    9529    9531
    9532    9533    9534    9535    9536    9537    9538    9539    9530    9531
    9532    9533    9534    9537    9538    9531    9533    9532    9533    9534
    9535    9536    9537    9538    9540    9534    9535    9536    9537    9539
    9540    9534    9535    9537    9538    9539    9540    9536    9537    9538
    9539    9540    9537    9539    9538    9539    9540    9540    9540       0
    9542    9543    9544    9545    9546    9547    9548    9549    9550    9551
    9552    9553    9554    9555    9556    9557    9558    9543    9544    9545
    9546    9547    9548    9549    9550    9551    9552    9559    9544    9545
    9546    9547    9548    9549    9550    9551    9553    9554    9555    9559
    9560    9545    9546    9547    9548    9549    9550    9554    9556    9557
    9558    9560    9561    9562    9563    9546    9547    9551    9552    9553
    9559    9551    9552    9548    9551    9552    9553    9554    9555    9559
    9549    9551    9553    9554    9555    9556    9560    9550    9554    9555
    9556    9557    9558    9560    9561    9562    9564    9565    9566    9554
    9556    9557    9558    9561    9563    9564    9552    9553    9559    9559
    9559    9555    9556    9560    9561    9562    9560    9557    9560    9561
    9562    9563    9564    9565    9566    9567    9568    9569    9558    9561
    9562    9563    9564    9567    9568    9561    9563       0       0    9562
    9563    9564    9565    9566    9567    9568    9570    9571    9572    9564
    9565    9566    9567    9569    9570    9564    9565    9567    9568    9569
    9570    9571    9572    9573    9574    9575    9566    9567    9568    9569
    9570    9573    9574    9567    9569    9568    9569    9570    9571    9572
    9573    9574    9576    9570    9571    9572    9573    9575    9576    9570
    9571    9573    9574    9575    9576    9572    9573    9574    9575    9576
    9573    9575    9574    9575    9576    9576    9576       0    9578    9579
    9580    9581    9582    9583    9584    9585    9586    9587    9588    9589
    9590    9591    9592    9593    9594    9579    9580    9581    9582    9583
    9584    9585    9586    9587    9588    9595    9580    9581    9582    9583
    9584    9585    9586    9587    9589    9590    9591    9595    9596    9581
    9582    9583    9584    9585    9586    9590    9592    9593    9594    9596
    9597    9598    9599    9582    9583    9587    9588    9589    9595    9587
    9588    9584    9587    9588    9589    9590    9591    9595    9585    9587
    9589    9590    9591    9592    9596    9586    9590    9591    9592    9593
    9594    9596    9597    9598    9600    9601    9602    9590    9592    9593
    9594    9597    9599    9600    9588    9589    9595    9595    9595    9591
    9592    9596    9597    9598    9596    9593    9596    9597    9598    9599
    9600    9601    9602    9603    9604    9605    9594    9597    9598    9599
    9600    9603    9604    9597    9599       0       0    9598    9599    9600
    9601    9602    9603    9604    9606    9607    9608    9600    9601    9602
    9603    9605    9606    9600    9601    9603    9604    9605    9606    9607
    9608    9609    9610    9611    9602    9603    9604    9605    9606    9609
    9610    9603    9605    9604    9605    9606    9607    9608    9609    9610
    9612    9606    9607    9608    9609    9611    9612    9606    9607    9609
    9610    9611    9612    9608    9609    9610    9611    9612    9609    9611
    9610    9611    9612    9612    9612       0    9614    9615    9616    9617
    9618    9619    9620    9621    9622    9623    9624    9625    9626    9627
    9628    9629    9630    9615    9616    9617    9618    9619    9620    9621
    9622    9623    9624    9631    9616    9617    9618    9619    9620    9621
    9622    9623    9625    9626    9627    9631    9632    9617    9618    9619
    9620    9621    9622    9626    9628    9629    9630    9632    9633    9634
    9635    9618    9619    9623    9624    9625    9631    9623    9624    9620
    9623    9624    9625    9626    9627    9631    9621    9623    9625    9626
    9627    9628    9632    9622    9626    9627    9628    9629    9630    9632
    9633    9634    9636    9637    9638    9626    9628    9629    9630    9633
    9635    9636    9624    9625    9631    9631    9631    9627    9628    9632
    9633    9634    9632    9629    9632    9633    9634    9635    9636    9637
    9638    9639    9640    9641    9630    9633    9634    9635    9636    9639
    9640    9633    9635       0       0    9634    9635    9636    9637    9638
    9639    9640    9642    9643    9644    9636    9637    9638    9639    9641
    9642    9636    9637    9639    9640    9641    9642    9643    9644    9645
    9646    9647    9638    9639    9640    9641    9642    9645    9646    9639
    9641    9640    9641    9642    9643    9644    9645    9646    9648    9642
    9643    9644    9645    9647    9648    9642    9643    9645    9646    9647
    9648    9644    9645    9646    9647    9648    9645    9647    9646    9647
    9648    9648    9648       0    9650    9651    9652    9653    9654    9655
    9656    9657    9658    9659    9660    9661    9662    9663    9664    9665
    9666    9651    9652    9653    9654    9655    9656    9657    9658    9659
    9660    9667    9652    9653    9654    9655    9656    9657    9658    9659
    9661    9662    9663    9667    9668    9653    9654    9655    9656    9657
    9658    9662    9664    9665    9666    9668    9669    9670    9671    9654
    9655    9659    9660    9661    9667    9659    9660    9656    9659    9660
    9661    9662    9663    9667    9657    9659    9661    9662    9663    9664
    9668    9658    9662    9663    9664    9665    9666    9668    9669    9670
    9672    9673    9674    9662    9664    9665    9666    9669    9671    9672
    9660    9661    9667    9667    9667    9663    9664    9668    9669    9670
    9668    9665    9668    9669    9670    9671    9672    9673    9674    9675
    9676    9677    9666    9669    9670    9671    9672    9675    9676    9669
    9671       0       0    9670    9671    9672    9673    9674    9675    9676
    9678    9679    9680    9672    9673    9674    9675    9677    9678    9672
    9673    9675    9676    9677    9678    9679    9680    9681    9682    9683
    9674    9675    9676    9677    9678    9681    9682    9675    9677    9676
    9677    9678    9679    9680    9681    9682    9684    9678    9679    9680
    9681    9683    9684    9678    9679    9681    9682    9683    9684    9680
    9681    9682    9683    9684    9681    9683    9682    9683    9684    9684
    9684       0    9686    9687    9688    9689    9690    9691    9692    9693
    9694    9695    9696    9697    9698    9699    9700    9701    9702    9687
    9688    9689    9690    9691    9692    9693    9694    9695    9696    9703
    9688    9689    9690    9691    9692    9693    9694    9695    9697    9698
    9699    9703    9704    9689    9690    9691    9692    9693    9694    9698
    9700    9701    9702    9704    9705    9706    9707    9690    9691    9695
    9696    9697    9703    9695    9696    9692    9695    9696    9697    9698
    9699    9703    9693    9695    9697    9698    9699    9700    9704    9694
    9698    9699    9700    9701    9702    9704    9705    9706    9708    9709
    9710    9698    9700    9701    9702    9705    9707    9708    9696    9697
    9703    9703    9703    9699    9700    9704    9705    9706    9704    9701
    9704    9705    9706    9707    9708    9709    9710    9711    9712    9713
    9702    9705    9706    9707    9708    9711    9712    9705    9707       0
       0    9706    9707    9708    9709    9710    9711    9712    9714    9715
    9716    9708    9709    9710    9711    9713    9714    9708    9709    9711
    9712    9713    9714    9715    9716    9717    9718    9719    9710    9711
    9712    9713    9714    9717    9718    9711    9713    9712    9713    9714
    9715    9716    9717    9718    9720    9714    9715    9716    9717    9719
    9720    9714    9715    9717    9718    9719    9720    9716    9717    9718
    9719    9720    9717    9719    9718    9719    9720    9720    9720       0
    9722    9723    9724    9725    9726    9727    9728    9729    9730    9731
    9732    9733    9734    9735    9736    9737    9738    9723    9724    9725
    9726    9727    9728    9729    9730    9731    9732    9739    9724    9725
    9726    9727    9728    9729    9730    9731    9733    9734    9735    9739
    9740    9725    9726    9727    9728    9729    9730    9734    9736    9737
    9738    9740    9741    9742    9743    9726    9727    9731    9732    9733
    9739    9731    9732    9728    9731    9732    9733    9734    9735    9739
    9729    9731    9733    9734    9735    9736    9740    9730    9734    9735
    9736    9737    9738    9740    9741    9742    9744    9745    9746    9734
    9736    9737    9738    9741    9743    9744    9732    9733    9739    9739
    9739    9735    9736    9740    9741    9742    9740    9737    9740    9741
    9742    9743    9744    9745    9746    9747    9748    9749    9738    9741
    9742    9743    9744    9747    9748    9741    9743       0       0    9742
    9743    9744    9745    9746    9747    9748    9750    9751    9752    9744
    9745    9746    9747    9749    9750    9744    9745    9747    9748    9749
    9750    9751    9752    9753    9754    9755    9746    9747    9748    9749
    9750    9753    9754    9747    9749    9748    9749    9750    9751    9752
    9753    9754    9756    9750    9751    9752    9753    9755    9756    9750
    9751    9753    9754    9755    9756    9752    9753    9754    9755    9756
    9753    9755    9754    9755    9756    9756    9756       0    9758    9759
    9760    9761    9762    9763    9764    9765    9766    9767    9768    9769
    9770    9771    9772    9773    9774    9759    9760    9761    9762    9763
    9764    9765    9766    9767    9768    9775    9760    9761    9762    9763
    9764    9765    9766    9767    9769    9770    9771    9775    9776    9761
    9762    9763    9764    9765    9766    9770    9772    9773    9774    9776
    9777    9778    9779    9762    9763    9767    9768    9769    9775    9767
    9768    9764    9767    9768    9769    9770    9771    9775    9765    9767
    9769    9770    9771    9772    9776    9766    9770    9771    9772    9773
    9774    9776    9777    9778    9780    9781    9782    9770    9772    9773
    9774    9777    9779    9780    9768    9769    9775    9775    9775    9771
    9772    9776    9777    9778    9776    9773    9776    9777    9778    9779
    9780    9781    9782    9783    9784    9785    9774    9777    9778    9779
    9780    9783    9784    9777    9779       0       0    9778    9779    9780
    9781    9782    9783    9784    9786    9787    9788    9780    9781    9782
    9783    9785    9786    9780    9781    9783    9784    9785    9786    9787
    9788    9789    9790    9791    9782    9783    9784    9785    9786    9789
    9790    9783    9785    9784    9785    9786    9787    9788    9789    9790
    9792    9786    9787    9788    9789    9791    9792    9786    9787    9789
    9790    9791    9792    9788    9789    9790    9791    9792    9789    9791
    9790    9791    9792    9792    9792       0    9794    9795    9796    9797
    9798    9799    9800    9801    9802    9803    9804    9805    9806    9807
    9808    9809    9810    9795    9796    9797    9798    9799    9800    9801
    9802    9803    9804    9811    9796    9797    9798    9799    9800    9801
    9802    9803    9805    9806    9807    9811    9812    9797    9798    9799
    9800    9801    9802    9806    9808    9809    9810    9812    9813    9814
    9815    9798    9799    9803    9804    9805    9811    9803    9804    9800
    9803    9804    9805    9806    9807    9811    9801    9803    9805    9806
    9807    9808    9812    9802    9806    9807    9808    9809    9810    9812
    9813    9814    9816    9817    9818    9806    9808    9809    9810    9813
    9815    9816    9804    9805    9811    9811    9811    9807    9808    9812
    9813    9814    9812    9809    9812    9813    9814    9815    9816    9817
    9818    9819    9820    9821    9810    9813    9814    9815    9816    9819
    9820    9813    9815       0       0    9814    9815    9816    9817    9818
    9819    9820    9822    9823    9824    9816    9817    9818    9819    9821
    9822    9816    9817    9819    9820    9821    9822    9823    9824    9825
    9826    9827    9818    9819    9820    9821    9822    9825    9826    9819
    9821    9820    9821    9822    9823    9824    9825    9826    9828    9822
    9823    9824    9825    9827    9828    9822    9823    9825    9826    9827
    9828    9824    9825    9826    9827    9828    9825    9827    9826    9827
    9828    9828    9828       0    9830    9831    9832    9833    9834    9835
    9836    9837    9838    9839    9840    9841    9842    9843    9844    9845
    9846    9831    9832    9833    9834    9835    9836    9837    9838    9839
    9840    9847    9832    9833    9834    9835    9836    9837    9838    9839
    9841    9842    9843    9847    9848    9833    9834    9835    9836    9837
    9838    9842    9844    9845    9846    9848    9849    9850    9851    9834
    9835    9839    9840    9841    9847    9839    9840    9836    9839    9840
    9841    9842    9843    9847    9837    9839    9841    9842    9843    9844
    9848    9838    9842    9843    9844    9845    9846    9848    9849    9850
    9852    9853    9854    9842    9844    9845    9846    9849    9851    9852
    9840    9841    9847    9847    9847    9843    9844    9848    9849    9850
    9848    9845    9848    9849    9850    9851    9852    9853    9854    9855
    9856    9857    9846    9849    9850    9851    9852    9855    9856    9849
    9851       0       0    9850    9851    9852    9853    9854    9855    9856
    9858    9859    9860    9852    9853    9854    9855    9857    9858    9852
    9853    9855    9856    9857    9858    9859    9860    9861    9862    9863
    9854    9855    9856    9857    9858    9861    9862    9855    9857    9856
    9857    9858    9859    9860    9861    9862    9864    9858    9859    9860
    9861    9863    9864    9858    9859    9861    9862    9863    9864    9860
    9861    9862    9863    9864    9861    9863    9862    9863    9864    9864
    9864       0    9866    9867    9868    9869    9870    9871    9872    9873
    9874    9875    9876    9877    9878    9879    9880    9881    9882    9867
    9868    9869    9870    9871    9872    9873    9874    9875    9876    9883
    9868    9869    9870    9871    9872    9873    9874    9875    9877    9878
    9879    9883    9884    9869    9870    9871    9872    9873    9874    9878
    9880    9881    9882    9884    9885    9886    9887    9870    9871    9875
    9876    9877    9883    9875    9876    9872    9875    9876    9877    9878
    9879    9883    9873    9875    9877    9878    9879    9880    9884    9874
    9878    9879    9880    9881    9882    9884    9885    9886    9888    9889
    9890    9878    9880    9881    9882    9885    9887    9888    9876    9877
    9883    9883    9883    9879    9880    9884    9885    9886    9884    9881
    9884    9885    9886    9887    9888    9889    9890    9891    9892    9893
    9882    9885    9886    9887    9888    9891    9892    9885    9887       0
       0    9886    9887    9888    9889    9890    9891    9892    9894    9895
    9896    9888    9889    9890    9891    9893    9894    9888    9889    9891
    9892    9893    9894    9895    9896    9897    9898    9899    9890    9891
    9892    9893    9894    9897    9898    9891    9893    9892    9893    9894
    9895    9896    9897    9898    9900    9894    9895    9896    9897    9899
    9900    9894    9895    9897    9898    9899    9900    9896    9897    9898
    9899    9900    9897    9899    9898    9899    9900    9900    9900       0
    9902    9903    9904    9905    9906    9907    9908    9909    9910    9911
    9912    9913    9914    9915    9916    9917    9918    9903    9904    9905
    9906    9907    9908    9909    9910    9911    9912    9919    9904    9905
    9906    9907    9908    9909    9910    9911    9913    9914    9915    9919
    9920    9905    9906    9907    9908    9909    9910    9914    9916    9917
    9918    9920    9921    9922    9923    9906    9907    9911    9912    9913
    9919    9911    9912    9908    9911    9912    9913    9914    9915    9919
    9909    9911    9913    9914    9915    9916    9920    9910    9914    9915
    9916    9917    9918    9920    9921    9922    9924    9925    9926    9914
    9916    9917    9918    9921    9923    9924    9912    9913    9919    9919
    9919    9915    9916    9920    9921    9922    9920    9917    9920    9921
    9922    9923    9924    9925    9926    9927    9928    9929    9918    9921
    9922    9923    9924    9927    9928    9921    9923       0       0    9922
    9923    9924    9925    9926    9927    9928    9930    9931    9932    9924
    9925    9926    9927    9929    9930    9924    9925    9927    9928    9929
    9930    9931    9932    9933    9934    9935    9926    9927    9928    9929
    9930    9933    9934    9927    9929    9928    9929    9930    9931    9932
    9933    9934    9936    9930    9931    9932    9933    9935    9936    9930
    9931    9933    9934    9935    9936    9932    9933    9934    9935    9936
    9933    9935    9934    9935    9936    9936    9936       0    9938    9939
    9940    9941    9942    9943    9944    9945    9946    9947    9948    9949
    9950    9951    9952    9953    9954    9939    9940    9941    9942    9943
    9944    9945    9946    9947    9948    9955    9940    9941    9942    9943
    9944    9945    9946    9947    9949    9950    9951    9955    9956    9941
    9942    9943    9944    9945    9946    9950    9952    9953    9954    9956
    9957    9958    9959    9942    9943    9947    9948    9949    9955    9947
    9948    9944    9947    9948    9949    9950    9951    9955    9945    9947
    9949    9950    9951    9952    9956    9946    9950    9951    9952    9953
    9954    9956    9957    9958    9960    9961    9962    9950    9952    9953
    9954    9957    9959    9960    9948    9949    9955    9955    9955    9951
    9952    9956    9957    9958    9956    9953    9956    9957    9958    9959
    9960    9961    9962    9963    9964    9965    9954    9957    9958    9959
    9960    9963    9964    9957    9959       0       0    9958    9959    9960
    9961    9962    9963    9964    9966    9967    9968    9960    9961    9962
    9963    9965    9966    9960    9961    9963    9964    9965    9966    9967
    9968    9969    9970    9971    9962    9963    9964    9965    9966    9969
    9970    9963    9965    9964    9965    9966    9967    9968    9969    9970
    9972    9966    9967    9968    9969    9971    9972    9966    9967    9969
    9970    9971    9972    9968    9969    9970    9971    9972    9969    9971
    9970    9971    9972    9972    9972       0    9974    9975    9976    9977
    9978    9979    9980    9981    9982    9983    9984    9985    9986    9987
    9988    9989    9990    9975    9976    9977    9978    9979    9980    9981
    9982    9983    9984    9991    9976    9977    9978    9979    9980    9981
    9982    9983    9985    9986    9987    9991    9992    9977    9978    9979
    9980    9981    9982    9986    9988    9989    9990    9992    9993    9994
    9995    9978    9979    9983    9984    9985    9991    9983    9984    9980
    9983    9984    9985    9986    9987    9991    9981    9983    9985    9986
    9987    9988    9992    9982    9986    9987    9988    9989    9990    9992
    9993    9994    9996    9997    9998    9986    9988    9989    9990    9993
    9995    9996    9984    9985    9991    9991    9991    9987    9988    9992
    9993    9994    9992    9989    9992    9993    9994    9995    9996    9997
    9998    9999   10000   10001    9990    9993    9994    9995    9996    9999
   10000    9993    9995       0       0    9994    9995    9996    9997    9998
    9999   10000   10002   10003   10004    9996    9997    9998    9999   10001
   10002    9996    9997    9999   10000   10001   10002   10003   10004   10005
   10006   10007    9998    9999   10000   10001   10002   10005   10006    9999
   10001   10000   10001   10002   10003   10004   10005   10006   10008   10002
   10003   10004   10005   10007   10008   10002   10003   10005   10006   10007
   10008   10004   10005   10006   10007   10008   10005   10007   10006   10007
   10008   10008   10008       0   10010   10011   10012   10013   10014   10015
   10016   10017   10018   10019   10020   10021   10022   10023   10024   10025
   10026   10011   10012   10013   10014   10015   10016   10017   10018   10019
   10020   10027   10012   10013   10014   10015   10016   10017   10018   10019
   10021   10022   10023   10027   10028   10013   10014   10015   10016   10017
   10018   10022   10024   10025   10026   10028   10029   10030   10031   10014
   10015   10019   10020   10021   10027   10019   10020   10016   10019   10020
   10021   10022   10023   10027   10017   10019   10021   10022   10023   10024
   10028   10018   10022   10023   10024   10025   10026   10028   10029   10030
   10032   10033   10034   10022   10024   10025   10026   10029   10031   10032
   10020   10021   10027   10027   10027   10023   10024   10028   10029   10030
   10028   10025   10028   10029   10030   10031   10032   10033   10034   10035
   10036   10037   10026   10029   10030   10031   10032   10035   10036   10029
   10031       0       0   10030   10031   10032   10033   10034   10035   10036
   10038   10039   10040   10032   10033   10034   10035   10037   10038   10032
   10033   10035   10036   10037   10038   10039   10040   10041   10042   10043
   10034   10035   10036   10037   10038   10041   10042   10035   10037   10036
   10037   10038   10039   10040   10041   10042   10044   10038   10039   10040
   10041   10043   10044   10038   10039   10041   10042   10043   10044   10040
   10041   10042   10043   10044   10041   10043   10042   10043   10044   10044
   10044       0   10046   10047   10048   10049   10050   10051   10052   10053
   10054   10055   10056   10057   10058   10059   10060   10061   10062   10047
   10048   10049   10050   10051   10052   10053   10054   10055   10056   10063
   10048   10049   10050   10051   10052   10053   10054   10055   10057   10058
   10059   10063   10064   10049   10050   10051   10052   10053   10054   10058
   10060   10061   10062   10064   10065   10066   10067   10050   10051   10055
   10056   10057   10063   10055   10056   10052   10055   10056   10057   10058
   10059   10063   10053   10055   10057   10058   10059   10060   10064   10054
   10058   10059   10060   10061   10062   10064   10065   10066   10068   10069
   10070   10058   10060   10061   10062   10065   10067   10068   10056   10057
   10063   10063   10063   10059   10060   10064   10065   10066   10064   10061
   10064   10065   10066   10067   10068   10069   10070   10071   10072   10073
   10062   10065   10066   10067   10068   10071   10072   10065   10067       0
       0   10066   10067   10068   10069   10070   10071   10072   10074   10075
   10076   10068   10069   10070   10071   10073   10074   10068   10069   10071
   10072   10073   10074   10075   10076   10077   10078   10079   10070   10071
   10072   10073   10074   10077   10078   10071   10073   10072   10073   10074
   10075   10076   10077   10078   10080   10074   10075   10076   10077   10079
   10080   10074   10075   10077   10078   10079   10080   10076   10077   10078
   10079   10080   10077   10079   10078   10079   10080   10080   10080       0
   10082   10083   10084   10085   10086   10087   10088   10089   10090   10091
   10092   10093   10094   10095   10096   10097   10098   10083   10084   10085
   10086   10087   10088   10089   10090   10091   10092   10099   10084   10085
   10086   10087   10088   10089   10090   10091   10093   10094   10095   10099
   10100   10085   10086   10087   10088   10089   10090   10094   10096   10097
   10098   10100   10101   10102   10103   10086   10087   10091   10092   10093
   10099   10091   10092   10088   10091   10092   10093   10094   10095   10099
   10089   10091   10093   10094   10095   10096   10100   10090   10094   10095
   10096   10097   10098   10100   10101   10102   10104   10105   10106   10094
   10096   10097   10098   10101   10103   10104   10092   10093   10099   10099
   10099   10095   10096   10100   10101   10102   10100   10097   10100   10101
   10102   10103   10104   10105   10106   10107   10108   10109   10098   10101
   10102   10103   10104   10107   10108   10101   10103       0       0   10102
   10103   10104   10105   10106   10107   10108   10110   10111   10112   10104
   10105   10106   10107   10109   10110   10104   10105   10107   10108   10109
   10110   10111   10112   10113   10114   10115   10106   10107   10108   10109
   10110   10113   10114   10107   10109   10108   10109   10110   10111   10112
   10113   10114   10116   10110   10111   10112   10113   10115   10116   10110
   10111   10113   10114   10115   10116   10112   10113   10114   10115   10116
   10113   10115   10114   10115   10116   10116   10116       0   10118   10119
   10120   10121   10122   10123   10124   10125   10126   10127   10128   10129
   10130   10131   10132   10133   10134   10119   10120   10121   10122   10123
   10124   10125   10126   10127   10128   10135   10120   10121   10122   10123
   10124   10125   10126   10127   10129   10130   10131   10135   10136   10121
   10122   10123   10124   10125   10126   10130   10132   10133   10134   10136
   10137   10138   10139   10122   10123   10127   10128   10129   10135   10127
   10128   10124   10127   10128   10129   10130   10131   10135   10125   10127
   10129   10130   10131   10132   10136   10126   10130   10131   10132   10133
   10134   10136   10137   10138   10140   10141   10142   10130   10132   10133
   10134   10137   10139   10140   10128   10129   10135   10135   10135   10131
   10132   10136   10137   10138   10136   10133   10136   10137   10138   10139
   10140   10141   10142   10143   10144   10145   10134   10137   10138   10139
   10140   10143   10144   10137   10139       0       0   10138   10139   10140
   10141   10142   10143   10144   10146   10147   10148   10140   10141   10142
   10143   10145   10146   10140   10141   10143   10144   10145   10146   10147
   10148   10149   10150   10151   10142   10143   10144   10145   10146   10149
   10150   10143   10145   10144   10145   10146   10147   10148   10149   10150
   10152   10146   10147   10148   10149   10151   10152   10146   10147   10149
   10150   10151   10152   10148   10149   10150   10151   10152   10149   10151
   10150   10151   10152   10152   10152       0   10154   10155   10156   10157
   10158   10159   10160   10161   10162   10163   10164   10165   10166   10167
   10168   10169   10170   10155   10156   10157   10158   10159   10160   10161
   10162   10163   10164   10171   10156   10157   10158   10159   10160   10161
   10162   10163   10165   10166   10167   10171   10172   10157   10158   10159
   10160   10161   10162   10166   10168   10169   10170   10172   10173   10174
   10175   10158   10159   10163   10164   10165   10171   10163   10164   10160
   10163   10164   10165   10166   10167   10171   10161   10163   10165   10166
   10167   10168   10172   10162   10166   10167   10168   10169   10170   10172
   10173   10174   10176   10177   10178   10166   10168   10169   10170   10173
   10175   10176   10164   10165   10171   10171   10171   10167   10168   10172
   10173   10174   10172   10169   10172   10173   10174   10175   10176   10177
   10178   10179   10180   10181   10170   10173   10174   10175   10176   10179
   10180   10173   10175       0       0   10174   10175   10176   10177   10178
   10179   10180   10182   10183   10184   10176   10177   10178   10179   10181
   10182   10176   10177   10179   10180   10181   10182   10183   10184   10185
   10186   10187   10178   10179   10180   10181   10182   10185   10186   10179
   10181   10180   10181   10182   10183   10184   10185   10186   10188   10182
   10183   10184   10185   10187   10188   10182   10183   10185   10186   10187
   10188   10184   10185   10186   10187   10188   10185   10187   10186   10187
   10188   10188   10188       0   10190   10191   10192   10193   10194   10195
   10196   10197   10198   10199   10200   10201   10202   10203   10204   10205
   10206   10191   10192   10193   10194   10195   10196   10197   10198   10199
   10200   10207   10192   10193   10194   10195   10196   10197   10198   10199
   10201   10202   10203   10207   10208   10193   10194   10195   10196   10197
   10198   10202   10204   10205   10206   10208   10209   10210   10211   10194
   10195   10199   10200   10201   10207   10199   10200   10196   10199   10200
   10201   10202   10203   10207   10197   10199   10201   10202   10203   10204
   10208   10198   10202   10203   10204   10205   10206   10208   10209   10210
   10212   10213   10214   10202   10204   10205   10206   10209   10211   10212
   10200   10201   10207   10207   10207   10203   10204   10208   10209   10210
   10208   10205   10208   10209   10210   10211   10212   10213   10214   10215
   10216   10217   10206   10209   10210   10211   10212   10215   10216   10209
   10211       0       0   10210   10211   10212   10213   10214   10215   10216
   10218   10219   10220   10212   10213   10214   10215   10217   10218   10212
   10213   10215   10216   10217   10218   10219   10220   10221   10222   10223
   10214   10215   10216   10217   10218   10221   10222   10215   10217   10216
   10217   10218   10219   10220   10221   10222   10224   10218   10219   10220
   10221   10223   10224   10218   10219   10221   10222   10223   10224   10220
   10221   10222   10223   10224   10221   10223   10222   10223   10224   10224
   10224       0   10226   10227   10228   10229   10230   10231   10232   10233
   10234   10235   10236   10237   10238   10239   10240   10241   10242   10227
   10228   10229   10230   10231   10232   10233   10234   10235   10236   10243
   10228   10229   10230   10231   10232   10233   10234   10235   10237   10238
   10239   10243   10244   10229   10230   10231   10232   10233   10234   10238
   10240   10241   10242   10244   10245   10246   10247   10230   10231   10235
   10236   10237   10243   10235   10236   10232   10235   10236   10237   10238
   10239   10243   10233   10235   10237   10238   10239   10240   10244   10234
   10238   10239   10240   10241   10242   10244   10245   10246   10248   10249
   10250   10238   10240   10241   10242   10245   10247   10248   10236   10237
   10243   10243   10243   10239   10240   10244   10245   10246   10244   10241
   10244   10245   10246   10247   10248   10249   10250   10251   10252   10253
   10242   10245   10246   10247   10248   10251   10252   10245   10247       0
       0   10246   10247   10248   10249   10250   10251   10252   10254   10255
   10256   10248   10249   10250   10251   10253   10254   10248   10249   10251
   10252   10253   10254   10255   10256   10257   10258   10259   10250   10251
   10252   10253   10254   10257   10258   10251   10253   10252   10253   10254
   10255   10256   10257   10258   10260   10254   10255   10256   10257   10259
   10260   10254   10255   10257   10258   10259   10260   10256   10257   10258
   10259   10260   10257   10259   10258   10259   10260   10260   10260       0
   10262   10263   10264   10265   10266   10267   10268   10269   10270   10271
   10272   10273   10274   10275   10276   10277   10278   10263   10264   10265
   10266   10267   10268   10269   10270   10271   10272   10279   10264   10265
   10266   10267   10268   10269   10270   10271   10273   10274   10275   10279
   10280   10265   10266   10267   10268   10269   10270   10274   10276   10277
   10278   10280   10281   10282   10283   10266   10267   10271   10272   10273
   10279   10271   10272   10268   10271   10272   10273   10274   10275   10279
   10269   10271   10273   10274   10275   10276   10280   10270   10274   10275
   10276   10277   10278   10280   10281   10282   10284   10285   10286   10274
   10276   10277   10278   10281   10283   10284   10272   10273   10279   10279
   10279   10275   10276   10280   10281   10282   10280   10277   10280   10281
   10282   10283   10284   10285   10286   10287   10288   10289   10278   10281
   10282   10283   10284   10287   10288   10281   10283       0       0   10282
   10283   10284   10285   10286   10287   10288   10290   10291   10292   10284
   10285   10286   10287   10289   10290   10284   10285   10287   10288   10289
   10290   10291   10292   10293   10294   10295   10286   10287   10288   10289
   10290   10293   10294   10287   10289   10288   10289   10290   10291   10292
   10293   10294   10296   10290   10291   10292   10293   10295   10296   10290
   10291   10293   10294   10295   10296   10292   10293   10294   10295   10296
   10293   10295   10294   10295   10296   10296   10296       0   10298   10299
   10300   10301   10302   10303   10304   10305   10306   10307   10308   10309
   10310   10311   10312   10313   10314   10299   10300   10301   10302   10303
   10304   10305   10306   10307   10308   10315   10300   10301   10302   10303
   10304   10305   10306   10307   10309   10310   10311   10315   10316   10301
   10302   10303   10304   10305   10306   10310   10312   10313   10314   10316
   10317   10318   10319   10302   10303   10307   10308   10309   10315   10307
   10308   10304   10307   10308   10309   10310   10311   10315   10305   10307
   10309   10310   10311   10312   10316   10306   10310   10311   10312   10313
   10314   10316   10317   10318   10320   10321   10322   10310   10312   10313
   10314   10317   10319   10320   10308   10309   10315   10315   10315   10311
   10312   10316   10317   10318   10316   10313   10316   10317   10318   10319
   10320   10321   10322   10323   10324   10325   10314   10317   10318   10319
   10320   10323   10324   10317   10319       0       0   10318   10319   10320
   10321   10322   10323   10324   10326   10327   10328   10320   10321   10322
   10323   10325   10326   10320   10321   10323   10324   10325   10326   10327
   10328   10329   10330   10331   10322   10323   10324   10325   10326   10329
   10330   10323   10325   10324   10325   10326   10327   10328   10329   10330
   10332   10326   10327   10328   10329   10331   10332   10326   10327   10329
   10330   10331   10332   10328   10329   10330   10331   10332   10329   10331
   10330   10331   10332   10332   10332       0   10334   10335   10336   10337
   10338   10339   10340   10341   10342   10343   10344   10345   10346   10347
   10348   10349   10350   10335   10336   10337   10338   10339   10340   10341
   10342   10343   10344   10351   10336   10337   10338   10339   10340   10341
   10342   10343   10345   10346   10347   10351   10352   10337   10338   10339
   10340   10341   10342   10346   10348   10349   10350   10352   10353   10354
   10355   10338   10339   10343   10344   10345   10351   10343   10344   10340
   10343   10344   10345   10346   10347   10351   10341   10343   10345   10346
   10347   10348   10352   10342   10346   10347   10348   10349   10350   10352
   10353   10354   10356   10357   10358   10346   10348   10349   10350   10353
   10355   10356   10344   10345   10351   10351   10351   10347   10348   10352
   10353   10354   10352   10349   10352   10353   10354   10355   10356   10357
   10358   10359   10360   10361   10350   10353   10354   10355   10356   10359
   10360   10353   10355       0       0   10354   10355   10356   10357   10358
   10359   10360   10362   10363   10364   10356   10357   10358   10359   10361
   10362   10356   10357   10359   10360   10361   10362   10363   10364   10365
   10366   10367   10358   10359   10360   10361   10362   10365   10366   10359
   10361   10360   10361   10362   10363   10364   10365   10366   10368   10362
   10363   10364   10365   10367   10368   10362   10363   10365   10366   10367
   10368   10364   10365   10366   10367   10368   10365   10367   10366   10367
   10368   10368   10368       0   10370   10371   10372   10373   10374   10375
   10376   10377   10378   10379   10380   10381   10382   10383   10384   10385
   10386   10371   10372   10373   10374   10375   10376   10377   10378   10379
   10380   10387   10372   10373   10374   10375   10376   10377   10378   10379
   10381   10382   10383   10387   10388   10373   10374   10375   10376   10377
   10378   10382   10384   10385   10386   10388   10389   10390   10391   10374
   10375   10379   10380   10381   10387   10379   10380   10376   10379   10380
   10381   10382   10383   10387   10377   10379   10381   10382   10383   10384
   10388   10378   10382   10383   10384   10385   10386   10388   10389   10390
   10392   10393   10394   10382   10384   10385   10386   10389   10391   10392
   10380   10381   10387   10387   10387   10383   10384   10388   10389   10390
   10388   10385   10388   10389   10390   10391   10392   10393   10394   10395
   10396   10397   10386   10389   10390   10391   10392   10395   10396   10389
   10391       0       0   10390   10391   10392   10393   10394   10395   10396
   10398   10399   10400   10392   10393   10394   10395   10397   10398   10392
   10393   10395   10396   10397   10398   10399   10400   10401   10402   10403
   10394   10395   10396   10397   10398   10401   10402   10395   10397   10396
   10397   10398   10399   10400   10401   10402   10404   10398   10399   10400
   10401   10403   10404   10398   10399   10401   10402   10403   10404   10400
   10401   10402   10403   10404   10401   10403   10402   10403   10404   10404
   10404       0   10406   10407   10408   10409   10410   10411   10412   10413
   10414   10415   10416   10417   10418   10419   10420   10421   10422   10407
   10408   10409   10410   10411   10412   10413   10414   10415   10416   10423
   10408   10409   10410   10411   10412   10413   10414   10415   10417   10418
   10419   10423   10424   10409   10410   10411   10412   10413   10414   10418
   10420   10421   10422   10424   10425   10426   10427   10410   10411   10415
   10416   10417   10423   10415   10416   10412   10415   10416   10417   10418
   10419   10423   10413   10415   10417   10418   10419   10420   10424   10414
   10418   10419   10420   10421   10422   10424   10425   10426   10428   10429
   10430   10418   10420   10421   10422   10425   10427   10428   10416   10417
   10423   10423   10423   10419   10420   10424   10425   10426   10424   10421
   10424   10425   10426   10427   10428   10429   10430   10431   10432   10433
   10422   10425   10426   10427   10428   10431   10432   10425   10427       0
       0   10426   10427   10428   10429   10430   10431   10432   10434   10435
   10436   10428   10429   10430   10431   10433   10434   10428   10429   10431
   10432   10433   10434   10435   10436   10437   10438   10439   10430   10431
   10432   10433   10434   10437   10438   10431   10433   10432   10433   10434
   10435   10436   10437   10438   10440   10434   10435   10436   10437   10439
   10440   10434   10435   10437   10438   10439   10440   10436   10437   10438
   10439   10440   10437   10439   10438   10439   10440   10440   10440       0
   10442   10443   10444   10445   10446   10447   10448   10449   10450   10451
   10452   10453   10454   10455   10456   10457   10458   10443   10444   10445
   10446   10447   10448   10449   10450   10451   10452   10459   10444   10445
   10446   10447   10448   10449   10450   10451   10453   10454   10455   10459
   10460   10445   10446   10447   10448   10449   10450   10454   10456   10457
   10458   10460   10461   10462   10463   10446   10447   10451   10452   10453
   10459   10451   10452   10448   10451   10452   10453   10454   10455   10459
   10449   10451   10453   10454   10455   10456   10460   10450   10454   10455
   10456   10457   10458   10460   10461   10462   10464   10465   10466   10454
   10456   10457   10458   10461   10463   10464   10452   10453   10459   10459
   10459   10455   10456   10460   10461   10462   10460   10457   10460   10461
   10462   10463   10464   10465   10466   10467   10468   10469   10458   10461
   10462   10463   10464   10467   10468   10461   10463       0       0   10462
   10463   10464   10465   10466   10467   10468   10470   10471   10472   10464
   10465   10466   10467   10469   10470   10464   10465   10467   10468   10469
   10470   10471   10472   10473   10474   10475   10466   10467   10468   10469
   10470   10473   10474   10467   10469   10468   10469   10470   10471   10472
   10473   10474   10476   10470   10471   10472   10473   10475   10476   10470
   10471   10473   10474   10475   10476   10472   10473   10474   10475   10476
   10473   10475   10474   10475   10476   10476   10476       0   10478   10479
   10480   10481   10482   10483   10484   10485   10486   10487   10488   10489
   10490   10491   10492   10493   10494   10479   10480   10481   10482   10483
   10484   10485   10486   10487   10488   10495   10480   10481   10482   10483
   10484   10485   10486   10487   10489   10490   10491   10495   10496   10481
   10482   10483   10484   10485   10486   10490   10492   10493   10494   10496
   10497   10498   10499   10482   10483   10487   10488   10489   10495   10487
   10488   10484   10487   10488   10489   10490   10491   10495   10485   10487
   10489   10490   10491   10492   10496   10486   10490   10491   10492   10493
   10494   10496   10497   10498   10500   10501   10502   10490   10492   10493
   10494   10497   10499   10500   10488   10489   10495   10495   10495   10491
   10492   10496   10497   10498   10496   10493   10496   10497   10498   10499
   10500   10501   10502   10503   10504   10505   10494   10497   10498   10499
   10500   10503   10504   10497   10499       0       0   10498   10499   10500
   10501   10502   10503   10504   10506   10507   10508   10500   10501   10502
   10503   10505   10506   10500   10501   10503   10504   10505   10506   10507
   10508   10509   10510   10511   10502   10503   10504   10505   10506   10509
   10510   10503   10505   10504   10505   10506   10507   10508   10509   10510
   10512   10506   10507   10508   10509   10511   10512   10506   10507   10509
   10510   10511   10512   10508   10509   10510   10511   10512   10509   10511
   10510   10511   10512   10512   10512       0   10514   10515   10516   10517
   10518   10519   10520   10521   10522   10523   10524   10525   10526   10527
   10528   10529   10530   10515   10516   10517   10518   10519   10520   10521
   10522   10523   10524   10531   10516   10517   10518   10519   10520   10521
   10522   10523   10525   10526   10527   10531   10532   10517   10518   10519
   10520   10521   10522   10526   10528   10529   10530   10532   10533   10534
   10535   10518   10519   10523   10524   10525   10531   10523   10524   10520
   10523   10524   10525   10526   10527   10531   10521   10523   10525   10526
   10527   10528   10532   10522   10526   10527   10528   10529   10530   10532
   10533   10534   10536   10537   10538   10526   10528   10529   10530   10533
   10535   10536   10524   10525   10531   10531   10531   10527   10528   10532
   10533   10534   10532   10529   10532   10533   10534   10535   10536   10537
   10538   10539   10540   10541   10530   10533   10534   10535   10536   10539
   10540   10533   10535       0       0   10534   10535   10536   10537   10538
   10539   10540   10542   10543   10544   10536   10537   10538   10539   10541
   10542   10536   10537   10539   10540   10541   10542   10543   10544   10545
   10546   10547   10538   10539   10540   10541   10542   10545   10546   10539
   10541   10540   10541   10542   10543   10544   10545   10546   10548   10542
   10543   10544   10545   10547   10548   10542   10543   10545   10546   10547
   10548   10544   10545   10546   10547   10548   10545   10547   10546   10547
   10548   10548   10548       0   10550   10551   10552   10553   10554   10555
   10556   10557   10558   10559   10560   10561   10562   10563   10564   10565
   10566   10551   10552   10553   10554   10555   10556   10557   10558   10559
   10560   10567   10552   10553   10554   10555   10556   10557   10558   10559
   10561   10562   10563   10567   10568   10553   10554   10555   10556   10557
   10558   10562   10564   10565   10566   10568   10569   10570   10571   10554
   10555   10559   10560   10561   10567   10559   10560   10556   10559   10560
   10561   10562   10563   10567   10557   10559   10561   10562   10563   10564
   10568   10558   10562   10563   10564   10565   10566   10568   10569   10570
   10572   10573   10574   10562   10564   10565   10566   10569   10571   10572
   10560   10561   10567   10567   10567   10563   10564   10568   10569   10570
   10568   10565   10568   10569   10570   10571   10572   10573   10574   10575
   10576   10577   10566   10569   10570   10571   10572   10575   10576   10569
   10571       0       0   10570   10571   10572   10573   10574   10575   10576
   10578   10579   10580   10572   10573   10574   10575   10577   10578   10572
   10573   10575   10576   10577   10578   10579   10580   10581   10582   10583
   10574   10575   10576   10577   10578   10581   10582   10575   10577   10576
   10577   10578   10579   10580   10581   10582   10584   10578   10579   10580
   10581   10583   10584   10578   10579   10581   10582   10583   10584   10580
   10581   10582   10583   10584   10581   10583   10582   10583   10584   10584
   10584       0   10586   10587   10588   10589   10590   10591   10592   10593
   10594   10595   10596   10597   10598   10599   10600   10601   10602   10587
   10588   10589   10590   10591   10592   10593   10594   10595   10596   10603
   10588   10589   10590   10591   10592   10593   10594   10595   10597   10598
   10599   10603   10604   10589   10590   10591   10592   10593   10594   10598
   10600   10601   10602   10604   10605   10606   10607   10590   10591   10595
   10596   10597   10603   10595   10596   10592   10595   10596   10597   10598
   10599   10603   10593   10595   10597   10598   10599   10600   10604   10594
   10598   10599   10600   10601   10602   10604   10605   10606   10608   10609
   10610   10598   10600   10601   10602   10605   10607   10608   10596   10597
   10603   10603   10603   10599   10600   10604   10605   10606   10604   10601
   10604   10605   10606   10607   10608   10609   10610   10611   10612   10613
   10602   10605   10606   10607   10608   10611   10612   10605   10607       0
       0   10606   10607   10608   10609   10610   10611   10612   10614   10615
   10616   10608   10609   10610   10611   10613   10614   10608   10609   10611
   10612   10613   10614   10615   10616   10617   10618   10619   10610   10611
   10612   10613   10614   10617   10618   10611   10613   10612   10613   10614
   10615   10616   10617   10618   10620   10614   10615   10616   10617   10619
   10620   10614   10615   10617   10618   10619   10620   10616   10617   10618
   10619   10620   10617   10619   10618   10619   10620   10620   10620       0
   10622   10623   10624   10625   10626   10627   10628   10629   10630   10631
   10632   10633   10634   10635   10636   10637   10638   10623   10624   10625
   10626   10627   10628   10629   10630   10631   10632   10639   10624   10625
   10626   10627   10628   10629   10630   10631   10633   10634   10635   10639
   10640   10625   10626   10627   10628   10629   10630   10634   10636   10637
   10638   10640   10641   10642   10643   10626   10627   10631   10632   10633
   10639   10631   10632   10628   10631   10632   10633   10634   10635   10639
   10629   10631   10633   10634   10635   10636   10640   10630   10634   10635
   10636   10637   10638   10640   10641   10642   10644   10645   10646   10634
   10636   10637   10638   10641   10643   10644   10632   10633   10639   10639
   10639   10635   10636   10640   10641   10642   10640   10637   10640   10641
   10642   10643   10644   10645   10646   10647   10648   10649   10638   10641
   10642   10643   10644   10647   10648   10641   10643       0       0   10642
   10643   10644   10645   10646   10647   10648   10650   10651   10652   10644
   10645   10646   10647   10649   10650   10644   10645   10647   10648   10649
   10650   10651   10652   10653   10654   10655   10646   10647   10648   10649
   10650   10653   10654   10647   10649   10648   10649   10650   10651   10652
   10653   10654   10656   10650   10651   10652   10653   10655   10656   10650
   10651   10653   10654   10655   10656   10652   10653   10654   10655   10656
   10653   10655   10654   10655   10656   10656   10656       0   10658   10659
   10660   10661   10662   10663   10664   10665   10666   10667   10668   10669
   10670   10671   10672   10673   10674   10659   10660   10661   10662   10663
   10664   10665   10666   10667   10668   10675   10660   10661   10662   10663
   10664   10665   10666   10667   10669   10670   10671   10675   10676   10661
   10662   10663   10664   10665   10666   10670   10672   10673   10674   10676
   10677   10678   10679   10662   10663   10667   10668   10669   10675   10667
   10668   10664   10667   10668   10669   10670   10671   10675   10665   10667
   10669   10670   10671   10672   10676   10666   10670   10671   10672   10673
   10674   10676   10677   10678   10680   10681   10682   10670   10672   10673
   10674   10677   10679   10680   10668   10669   10675   10675   10675   10671
   10672   10676   10677   10678   10676   10673   10676   10677   10678   10679
   10680   10681   10682   10683   10684   10685   10674   10677   10678   10679
   10680   10683   10684   10677   10679       0       0   10678   10679   10680
   10681   10682   10683   10684   10686   10687   10688   10680   10681   10682
   10683   10685   10686   10680   10681   10683   10684   10685   10686   10687
   10688   10689   10690   10691   10682   10683   10684   10685   10686   10689
   10690   10683   10685   10684   10685   10686   10687   10688   10689   10690
   10692   10686   10687   10688   10689   10691   10692   10686   10687   10689
   10690   10691   10692   10688   10689   10690   10691   10692   10689   10691
   10690   10691   10692   10692   10692       0   10694   10695   10696   10697
   10698   10699   10700   10701   10702   10703   10704   10705   10706   10707
   10708   10709   10710   10695   10696   10697   10698   10699   10700   10701
   10702   10703   10704   10711   10696   10697   10698   10699   10700   10701
   10702   10703   10705   10706   10707   10711   10712   10697   10698   10699
   10700   10701   10702   10706   10708   10709   10710   10712   10713   10714
   10715   10698   10699   10703   10704   10705   10711   10703   10704   10700
   10703   10704   10705   10706   10707   10711   10701   10703   10705   10706
   10707   10708   10712   10702   10706   10707   10708   10709   10710   10712
   10713   10714   10716   10717   10718   10706   10708   10709   10710   10713
   10715   10716   10704   10705   10711   10711   10711   10707   10708   10712
   10713   10714   10712   10709   10712   10713   10714   10715   10716   10717
   10718   10719   10720   10721   10710   10713   10714   10715   10716   10719
   10720   10713   10715       0       0   10714   10715   10716   10717   10718
   10719   10720   10722   10723   10724   10716   10717   10718   10719   10721
   10722   10716   10717   10719   10720   10721   10722   10723   10724   10725
   10726   10727   10718   10719   10720   10721   10722   10725   10726   10719
   10721   10720   10721   10722   10723   10724   10725   10726   10728   10722
   10723   10724   10725   10727   10728   10722   10723   10725   10726   10727
   10728   10724   10725   10726   10727   10728   10725   10727   10726   10727
   10728   10728   10728       0   10730   10731   10732   10733   10734   10735
   10736   10737   10738   10739   10740   10741   10742   10743   10744   10745
   10746   10731   10732   10733   10734   10735   10736   10737   10738   10739
   10740   10747   10732   10733   10734   10735   10736   10737   10738   10739
   10741   10742   10743   10747   10748   10733   10734   10735   10736   10737
   10738   10742   10744   10745   10746   10748   10749   10750   10751   10734
   10735   10739   10740   10741   10747   10739   10740   10736   10739   10740
   10741   10742   10743   10747   10737   10739   10741   10742   10743   10744
   10748   10738   10742   10743   10744   10745   10746   10748   10749   10750
   10752   10753   10754   10742   10744   10745   10746   10749   10751   10752
   10740   10741   10747   10747   10747   10743   10744   10748   10749   10750
   10748   10745   10748   10749   10750   10751   10752   10753   10754   10755
   10756   10757   10746   10749   10750   10751   10752   10755   10756   10749
   10751       0       0   10750   10751   10752   10753   10754   10755   10756
   10758   10759   10760   10752   10753   10754   10755   10757   10758   10752
   10753   10755   10756   10757   10758   10759   10760   10761   10762   10763
   10754   10755   10756   10757   10758   10761   10762   10755   10757   10756
   10757   10758   10759   10760   10761   10762   10764   10758   10759   10760
   10761   10763   10764   10758   10759   10761   10762   10763   10764   10760
   10761   10762   10763   10764   10761   10763   10762   10763   10764   10764
   10764       0   10766   10767   10768   10769   10770   10771   10772   10773
   10774   10775   10776   10777   10778   10779   10780   10781   10782   10767
   10768   10769   10770   10771   10772   10773   10774   10775   10776   10783
   10768   10769   10770   10771   10772   10773   10774   10775   10777   10778
   10779   10783   10784   10769   10770   10771   10772   10773   10774   10778
   10780   10781   10782   10784   10785   10786   10787   10770   10771   10775
   10776   10777   10783   10775   10776   10772   10775   10776   10777   10778
   10779   10783   10773   10775   10777   10778   10779   10780   10784   10774
   10778   10779   10780   10781   10782   10784   10785   10786   10788   10789
   10790   10778   10780   10781   10782   10785   10787   10788   10776   10777
   10783   10783   10783   10779   10780   10784   10785   10786   10784   10781
   10784   10785   10786   10787   10788   10789   10790   10791   10792   10793
   10782   10785   10786   10787   10788   10791   10792   10785   10787       0
       0   10786   10787   10788   10789   10790   10791   10792   10794   10795
   10796   10788   10789   10790   10791   10793   10794   10788   10789   10791
   10792   10793   10794   10795   10796   10797   10798   10799   10790   10791
   10792   10793   10794   10797   10798   10791   10793   10792   10793   10794
   10795   10796   10797   10798   10800   10794   10795   10796   10797   10799
   10800   10794   10795   10797   10798   10799   10800   10796   10797   10798
   10799   10800   10797   10799   10798   10799   10800   10800   10800       0
   10802   10803   10804   10805   10806   10807   10808   10809   10810   10811
   10812   10813   10814   10815   10816   10817   10818   10803   10804   10805
   10806   10807   10808   10809   10810   10811   10812   10819   10804   10805
   10806   10807   10808   10809   10810   10811   10813   10814   10815   10819
   10820   10805   10806   10807   10808   10809   10810   10814   10816   10817
   10818   10820   10821   10822   10823   10806   10807   10811   10812   10813
   10819   10811   10812   10808   10811   10812   10813   10814   10815   10819
   10809   10811   10813   10814   10815   10816   10820   10810   10814   10815
   10816   10817   10818   10820   10821   10822   10824   10825   10826   10814
   10816   10817   10818   10821   10823   10824   10812   10813   10819   10819
   10819   10815   10816   10820   10821   10822   10820   10817   10820   10821
   10822   10823   10824   10825   10826   10827   10828   10829   10818   10821
   10822   10823   10824   10827   10828   10821   10823       0       0   10822
   10823   10824   10825   10826   10827   10828   10830   10831   10832   10824
   10825   10826   10827   10829   10830   10824   10825   10827   10828   10829
   10830   10831   10832   10833   10834   10835   10826   10827   10828   10829
   10830   10833   10834   10827   10829   10828   10829   10830   10831   10832
   10833   10834   10836   10830   10831   10832   10833   10835   10836   10830
   10831   10833   10834   10835   10836   10832   10833   10834   10835   10836
   10833   10835   10834   10835   10836   10836   10836       0   10838   10839
   10840   10841   10842   10843   10844   10845   10846   10847   10848   10849
   10850   10851   10852   10853   10854   10839   10840   10841   10842   10843
   10844   10845   10846   10847   10848   10855   10840   10841   10842   10843
   10844   10845   10846   10847   10849   10850   10851   10855   10856   10841
   10842   10843   10844   10845   10846   10850   10852   10853   10854   10856
   10857   10858   10859   10842   10843   10847   10848   10849   10855   10847
   10848   10844   10847   10848   10849   10850   10851   10855   10845   10847
   10849   10850   10851   10852   10856   10846   10850   10851   10852   10853
   10854   10856   10857   10858   10860   10861   10862   10850   10852   10853
   10854   10857   10859   10860   10848   10849   10855   10855   10855   10851
   10852   10856   10857   10858   10856   10853   10856   10857   10858   10859
   10860   10861   10862   10863   10864   10865   10854   10857   10858   10859
   10860   10863   10864   10857   10859       0       0   10858   10859   10860
   10861   10862   10863   10864   10866   10867   10868   10860   10861   10862
   10863   10865   10866   10860   10861   10863   10864   10865   10866   10867
   10868   10869   10870   10871   10862   10863   10864   10865   10866   10869
   10870   10863   10865   10864   10865   10866   10867   10868   10869   10870
   10872   10866   10867   10868   10869   10871   10872   10866   10867   10869
   10870   10871   10872   10868   10869   10870   10871   10872   10869   10871
   10870   10871   10872   10872   10872       0   10874   10875   10876   10877
   10878   10879   10880   10881   10882   10883   10884   10885   10886   10887
   10888   10889   10890   10875   10876   10877   10878   10879   10880   10881
   10882   10883   10884   10891   10876   10877   10878   10879   10880   10881
   10882   10883   10885   10886   10887   10891   10892   10877   10878   10879
   10880   10881   10882   10886   10888   10889   10890   10892   10893   10894
   10895   10878   10879   10883   10884   10885   10891   10883   10884   10880
   10883   10884   10885   10886   10887   10891   10881   10883   10885   10886
   10887   10888   10892   10882   10886   10887   10888   10889   10890   10892
   10893   10894   10896   10897   10898   10886   10888   10889   10890   10893
   10895   10896   10884   10885   10891   10891   10891   10887   10888   10892
   10893   10894   10892   10889   10892   10893   10894   10895   10896   10897
   10898   10899   10900   10901   10890   10893   10894   10895   10896   10899
   10900   10893   10895       0       0   10894   10895   10896   10897   10898
   10899   10900   10902   10903   10904   10896   10897   10898   10899   10901
   10902   10896   10897   10899   10900   10901   10902   10903   10904   10905
   10906   10907   10898   10899   10900   10901   10902   10905   10906   10899
   10901   10900   10901   10902   10903   10904   10905   10906   10908   10902
   10903   10904   10905   10907   10908   10902   10903   10905   10906   10907
   10908   10904   10905   10906   10907   10908   10905   10907   10906   10907
   10908   10908   10908       0   10910   10911   10912   10913   10914   10915
   10916   10917   10918   10919   10920   10921   10922   10923   10924   10925
   10926   10911   10912   10913   10914   10915   10916   10917   10918   10919
   10920   10927   10912   10913   10914   10915   10916   10917   10918   10919
   10921   10922   10923   10927   10928   10913   10914   10915   10916   10917
   10918   10922   10924   10925   10926   10928   10929   10930   10931   10914
   10915   10919   10920   10921   10927   10919   10920   10916   10919   10920
   10921   10922   10923   10927   10917   10919   10921   10922   10923   10924
   10928   10918   10922   10923   10924   10925   10926   10928   10929   10930
   10932   10933   10934   10922   10924   10925   10926   10929   10931   10932
   10920   10921   10927   10927   10927   10923   10924   10928   10929   10930
   10928   10925   10928   10929   10930   10931   10932   10933   10934   10935
   10936   10937   10926   10929   10930   10931   10932   10935   10936   10929
   10931       0       0   10930   10931   10932   10933   10934   10935   10936
   10938   10939   10940   10932   10933   10934   10935   10937   10938   10932
   10933   10935   10936   10937   10938   10939   10940   10941   10942   10943
   10934   10935   10936   10937   10938   10941   10942   10935   10937   10936
   10937   10938   10939   10940   10941   10942   10944   10938   10939   10940
   10941   10943   10944   10938   10939   10941   10942   10943   10944   10940
   10941   10942   10943   10944   10941   10943   10942   10943   10944   10944
   10944       0   10946   10947   10948   10949   10950   10951   10952   10953
   10954   10955   10956   10957   10958   10959   10960   10961   10962   10947
   10948   10949   10950   10951   10952   10953   10954   10955   10956   10963
   10948   10949   10950   10951   10952   10953   10954   10955   10957   10958
   10959   10963   10964   10949   10950   10951   10952   10953   10954   10958
   10960   10961   10962   10964   10965   10966   10967   10950   10951   10955
   10956   10957   10963   10955   10956   10952   10955   10956   10957   10958
   10959   10963   10953   10955   10957   10958   10959   10960   10964   10954
   10958   10959   10960   10961   10962   10964   10965   10966   10968   10969
   10970   10958   10960   10961   10962   10965   10967   10968   10956   10957
   10963   10963   10963   10959   10960   10964   10965   10966   10964   10961
   10964   10965   10966   10967   10968   10969   10970   10971   10972   10973
   10962   10965   10966   10967   10968   10971   10972   10965   10967       0
       0   10966   10967   10968   10969   10970   10971   10972   10974   10975
   10976   10968   10969   10970   10971   10973   10974   10968   10969   10971
   10972   10973   10974   10975   10976   10977   10978   10979   10970   10971
   10972   10973   10974   10977   10978   10971   10973   10972   10973   10974
   10975   10976   10977   10978   10980   10974   10975   10976   10977   10979
   10980   10974   10975   10977   10978   10979   10980   10976   10977   10978
   10979   10980   10977   10979   10978   10979   10980   10980   10980       0
   10982   10983   10984   10985   10986   10987   10988   10989   10990   10991
   10992   10993   10994   10995   10996   10997   10998   10983   10984   10985
   10986   10987   10988   10989   10990   10991   10992   10999   10984   10985
   10986   10987   10988   10989   10990   10991   10993   10994   10995   10999
   11000   10985   10986   10987   10988   10989   10990   10994   10996   10997
   10998   11000   11001   11002   11003   10986   10987   10991   10992   10993
   10999   10991   10992   10988   10991   10992   10993   10994   10995   10999
   10989   10991   10993   10994   10995   10996   11000   10990   10994   10995
   10996   10997   10998   11000   11001   11002   11004   11005   11006   10994
   10996   10997   10998   11001   11003   11004   10992   10993   10999   10999
   10999   10995   10996   11000   11001   11002   11000   10997   11000   11001
   11002   11003   11004   11005   11006   11007   11008   11009   10998   11001
   11002   11003   11004   11007   11008   11001   11003       0       0   11002
   11003   11004   11005   11006   11007   11008   11010   11011   11012   11004
   11005   11006   11007   11009   11010   11004   11005   11007   11008   11009
   11010   11011   11012   11013   11014   11015   11006   11007   11008   11009
   11010   11013   11014   11007   11009   11008   11009   11010   11011   11012
   11013   11014   11016   11010   11011   11012   11013   11015   11016   11010
   11011   11013   11014   11015   11016   11012   11013   11014   11015   11016
   11013   11015   11014   11015   11016   11016   11016       0   11018   11019
   11020   11021   11022   11023   11024   11025   11026   11027   11028   11029
   11030   11031   11032   11033   11034   11019   11020   11021   11022   11023
   11024   11025   11026   11027   11028   11035   11020   11021   11022   11023
   11024   11025   11026   11027   11029   11030   11031   11035   11036   11021
   11022   11023   11024   11025   11026   11030   11032   11033   11034   11036
   11037   11038   11039   11022   11023   11027   11028   11029   11035   11027
   11028   11024   11027   11028   11029   11030   11031   11035   11025   11027
   11029   11030   11031   11032   11036   11026   11030   11031   11032   11033
   11034   11036   11037   11038   11040   11041   11042   11030   11032   11033
   11034   11037   11039   11040   11028   11029   11035   11035   11035   11031
   11032   11036   11037   11038   11036   11033   11036   11037   11038   11039
   11040   11041   11042   11043   11044   11045   11034   11037   11038   11039
   11040   11043   11044   11037   11039       0       0   11038   11039   11040
   11041   11042   11043   11044   11046   11047   11048   11040   11041   11042
   11043   11045   11046   11040   11041   11043   11044   11045   11046   11047
   11048   11049   11050   11051   11042   11043   11044   11045   11046   11049
   11050   11043   11045   11044   11045   11046   11047   11048   11049   11050
   11052   11046   11047   11048   11049   11051   11052   11046   11047   11049
   11050   11051   11052   11048   11049   11050   11051   11052   11049   11051
   11050   11051   11052   11052   11052       0   11054   11055   11056   11057
   11058   11059   11060   11061   11062   11063   11064   11065   11066   11067
   11068   11069   11070   11055   11056   11057   11058   11059   11060   11061
   11062   11063   11064   11071   11056   11057   11058   11059   11060   11061
   11062   11063   11065   11066   11067   11071   11072   11057   11058   11059
   11060   11061   11062   11066   11068   11069   11070   11072   11073   11074
   11075   11058   11059   11063   11064   11065   11071   11063   11064   11060
   11063   11064   11065   11066   11067   11071   11061   11063   11065   11066
   11067   11068   11072   11062   11066   11067   11068   11069   11070   11072
   11073   11074   11076   11077   11078   11066   11068   11069   11070   11073
   11075   11076   11064   11065   11071   11071   11071   11067   11068   11072
   11073   11074   11072   11069   11072   11073   11074   11075   11076   11077
   11078   11079   11080   11081   11070   11073   11074   11075   11076   11079
   11080   11073   11075       0       0   11074   11075   11076   11077   11078
   11079   11080   11082   11083   11084   11076   11077   11078   11079   11081
   11082   11076   11077   11079   11080   11081   11082   11083   11084   11085
   11086   11087   11078   11079   11080   11081   11082   11085   11086   11079
   11081   11080   11081   11082   11083   11084   11085   11086   11088   11082
   11083   11084   11085   11087   11088   11082   11083   11085   11086   11087
   11088   11084   11085   11086   11087   11088   11085   11087   11086   11087
   11088   11088   11088       0   11090   11091   11092   11093   11094   11095
   11096   11097   11098   11099   11100   11101   11102   11103   11104   11105
   11106   11091   11092   11093   11094   11095   11096   11097   11098   11099
   11100   11107   11092   11093   11094   11095   11096   11097   11098   11099
   11101   11102   11103   11107   11108   11093   11094   11095   11096   11097
   11098   11102   11104   11105   11106   11108   11109   11110   11111   11094
   11095   11099   11100   11101   11107   11099   11100   11096   11099   11100
   11101   11102   11103   11107   11097   11099   11101   11102   11103   11104
   11108   11098   11102   11103   11104   11105   11106   11108   11109   11110
   11112   11113   11114   11102   11104   11105   11106   11109   11111   11112
   11100   11101   11107   11107   11107   11103   11104   11108   11109   11110
   11108   11105   11108   11109   11110   11111   11112   11113   11114   11115
   11116   11117   11106   11109   11110   11111   11112   11115   11116   11109
   11111       0       0   11110   11111   11112   11113   11114   11115   11116
   11118   11119   11120   11112   11113   11114   11115   11117   11118   11112
   11113   11115   11116   11117   11118   11119   11120   11121   11122   11123
   11114   11115   11116   11117   11118   11121   11122   11115   11117   11116
   11117   11118   11119   11120   11121   11122   11124   11118   11119   11120
   11121   11123   11124   11118   11119   11121   11122   11123   11124   11120
   11121   11122   11123   11124   11121   11123   11122   11123   11124   11124
   11124       0   11126   11127   11128   11129   11130   11131   11132   11133
   11134   11135   11136   11137   11138   11139   11140   11141   11142   11127
   11128   11129   11130   11131   11132   11133   11134   11135   11136   11143
   11128   11129   11130   11131   11132   11133   11134   11135   11137   11138
   11139   11143   11144   11129   11130   11131   11132   11133   11134   11138
   11140   11141   11142   11144   11145   11146   11147   11130   11131   11135
   11136   11137   11143   11135   11136   11132   11135   11136   11137   11138
   11139   11143   11133   11135   11137   11138   11139   11140   11144   11134
   11138   11139   11140   11141   11142   11144   11145   11146   11148   11149
   11150   11138   11140   11141   11142   11145   11147   11148   11136   11137
   11143   11143   11143   11139   11140   11144   11145   11146   11144   11141
   11144   11145   11146   11147   11148   11149   11150   11151   11152   11153
   11142   11145   11146   11147   11148   11151   11152   11145   11147       0
       0   11146   11147   11148   11149   11150   11151   11152   11154   11155
   11156   11148   11149   11150   11151   11153   11154   11148   11149   11151
   11152   11153   11154   11155   11156   11157   11158   11159   11150   11151
   11152   11153   11154   11157   11158   11151   11153   11152   11153   11154
   11155   11156   11157   11158   11160   11154   11155   11156   11157   11159
   11160   11154   11155   11157   11158   11159   11160   11156   11157   11158
   11159   11160   11157   11159   11158   11159   11160   11160   11160       0
   11162   11163   11164   11165   11166   11167   11168   11169   11170   11171
   11172   11173   11174   11175   11176   11177   11178   11163   11164   11165
   11166   11167   11168   11169   11170   11171   11172   11179   11164   11165
   11166   11167   11168   11169   11170   11171   11173   11174   11175   11179
   11180   11165   11166   11167   11168   11169   11170   11174   11176   11177
   11178   11180   11181   11182   11183   11166   11167   11171   11172   11173
   11179   11171   11172   11168   11171   11172   11173   11174   11175   11179
   11169   11171   11173   11174   11175   11176   11180   11170   11174   11175
   11176   11177   11178   11180   11181   11182   11184   11185   11186   11174
   11176   11177   11178   11181   11183   11184   11172   11173   11179   11179
   11179   11175   11176   11180   11181   11182   11180   11177   11180   11181
   11182   11183   11184   11185   11186   11187   11188   11189   11178   11181
   11182   11183   11184   11187   11188   11181   11183       0       0   11182
   11183   11184   11185   11186   11187   11188   11190   11191   11192   11184
   11185   11186   11187   11189   11190   11184   11185   11187   11188   11189
   11190   11191   11192   11193   11194   11195   11186   11187   11188   11189
   11190   11193   11194   11187   11189   11188   11189   11190   11191   11192
   11193   11194   11196   11190   11191   11192   11193   11195   11196   11190
   11191   11193   11194   11195   11196   11192   11193   11194   11195   11196
   11193   11195   11194   11195   11196   11196   11196       0   11198   11199
   11200   11201   11202   11203   11204   11205   11206   11207   11208   11209
   11210   11211   11212   11213   11214   11199   11200   11201   11202   11203
   11204   11205   11206   11207   11208   11215   11200   11201   11202   11203
   11204   11205   11206   11207   11209   11210   11211   11215   11216   11201
   11202   11203   11204   11205   11206   11210   11212   11213   11214   11216
   11217   11218   11219   11202   11203   11207   11208   11209   11215   11207
   11208   11204   11207   11208   11209   11210   11211   11215   11205   11207
   11209   11210   11211   11212   11216   11206   11210   11211   11212   11213
   11214   11216   11217   11218   11220   11221   11222   11210   11212   11213
   11214   11217   11219   11220   11208   11209   11215   11215   11215   11211
   11212   11216   11217   11218   11216   11213   11216   11217   11218   11219
   11220   11221   11222   11223   11224   11225   11214   11217   11218   11219
   11220   11223   11224   11217   11219       0       0   11218   11219   11220
   11221   11222   11223   11224   11226   11227   11228   11220   11221   11222
   11223   11225   11226   11220   11221   11223   11224   11225   11226   11227
   11228   11229   11230   11231   11222   11223   11224   11225   11226   11229
   11230   11223   11225   11224   11225   11226   11227   11228   11229   11230
   11232   11226   11227   11228   11229   11231   11232   11226   11227   11229
   11230   11231   11232   11228   11229   11230   11231   11232   11229   11231
   11230   11231   11232   11232   11232       0   11234   11235   11236   11237
   11238   11239   11240   11241   11242   11243   11244   11245   11246   11247
   11248   11249   11250   11235   11236   11237   11238   11239   11240   11241
   11242   11243   11244   11251   11236   11237   11238   11239   11240   11241
   11242   11243   11245   11246   11247   11251   11252   11237   11238   11239
   11240   11241   11242   11246   11248   11249   11250   11252   11253   11254
   11255   11238   11239   11243   11244   11245   11251   11243   11244   11240
   11243   11244   11245   11246   11247   11251   11241   11243   11245   11246
   11247   11248   11252   11242   11246   11247   11248   11249   11250   11252
   11253   11254   11256   11257   11258   11246   11248   11249   11250   11253
   11255   11256   11244   11245   11251   11251   11251   11247   11248   11252
   11253   11254   11252   11249   11252   11253   11254   11255   11256   11257
   11258   11259   11260   11261   11250   11253   11254   11255   11256   11259
   11260   11253   11255       0       0   11254   11255   11256   11257   11258
   11259   11260   11262   11263   11264   11256   11257   11258   11259   11261
   11262   11256   11257   11259   11260   11261   11262   11263   11264   11265
   11266   11267   11258   11259   11260   11261   11262   11265   11266   11259
   11261   11260   11261   11262   11263   11264   11265   11266   11268   11262
   11263   11264   11265   11267   11268   11262   11263   11265   11266   11267
   11268   11264   11265   11266   11267   11268   11265   11267   11266   11267
   11268   11268   11268       0   11270   11271   11272   11273   11274   11275
   11276   11277   11278   11279   11280   11281   11282   11283   11284   11285
   11286   11271   11272   11273   11274   11275   11276   11277   11278   11279
   11280   11287   11272   11273   11274   11275   11276   11277   11278   11279
   11281   11282   11283   11287   11288   11273   11274   11275   11276   11277
   11278   11282   11284   11285   11286   11288   11289   11290   11291   11274
   11275   11279   11280   11281   11287   11279   11280   11276   11279   11280
   11281   11282   11283   11287   11277   11279   11281   11282   11283   11284
   11288   11278   11282   11283   11284   11285   11286   11288   11289   11290
   11292   11293   11294   11282   11284   11285   11286   11289   11291   11292
   11280   11281   11287   11287   11287   11283   11284   11288   11289   11290
   11288   11285   11288   11289   11290   11291   11292   11293   11294   11295
   11296   11297   11286   11289   11290   11291   11292   11295   11296   11289
   11291       0       0   11290   11291   11292   11293   11294   11295   11296
   11298   11299   11300   11292   11293   11294   11295   11297   11298   11292
   11293   11295   11296   11297   11298   11299   11300   11301   11302   11303
   11294   11295   11296   11297   11298   11301   11302   11295   11297   11296
   11297   11298   11299   11300   11301   11302   11304   11298   11299   11300
   11301   11303   11304   11298   11299   11301   11302   11303   11304   11300
   11301   11302   11303   11304   11301   11303   11302   11303   11304   11304
   11304       0   11306   11307   11308   11309   11310   11311   11312   11313
   11314   11315   11316   11317   11318   11319   11320   11321   11322   11307
   11308   11309   11310   11311   11312   11313   11314   11315   11316   11323
   11308   11309   11310   11311   11312   11313   11314   11315   11317   11318
   11319   11323   11324   11309   11310   11311   11312   11313   11314   11318
   11320   11321   11322   11324   11325   11326   11327   11310   11311   11315
   11316   11317   11323   11315   11316   11312   11315   11316   11317   11318
   11319   11323   11313   11315   11317   11318   11319   11320   11324   11314
   11318   11319   11320   11321   11322   11324   11325   11326   11328   11329
   11330   11318   11320   11321   11322   11325   11327   11328   11316   11317
   11323   11323   11323   11319   11320   11324   11325   11326   11324   11321
   11324   11325   11326   11327   11328   11329   11330   11331   11332   11333
   11322   11325   11326   11327   11328   11331   11332   11325   11327       0
       0   11326   11327   11328   11329   11330   11331   11332   11334   11335
   11336   11328   11329   11330   11331   11333   11334   11328   11329   11331
   11332   11333   11334   11335   11336   11337   11338   11339   11330   11331
   11332   11333   11334   11337   11338   11331   11333   11332   11333   11334
   11335   11336   11337   11338   11340   11334   11335   11336   11337   11339
   11340   11334   11335   11337   11338   11339   11340   11336   11337   11338
   11339   11340   11337   11339   11338   11339   11340   11340   11340       0
   11342   11343   11344   11345   11346   11347   11348   11349   11350   11351
   11352   11353   11354   11355   11356   11357   11358   11343   11344   11345
   11346   11347   11348   11349   11350   11351   11352   11359   11344   11345
   11346   11347   11348   11349   11350   11351   11353   11354   11355   11359
   11360   11345   11346   11347   11348   11349   11350   11354   11356   11357
   11358   11360   11361   11362   11363   11346   11347   11351   11352   11353
   11359   11351   11352   11348   11351   11352   11353   11354   11355   11359
   11349   11351   11353   11354   11355   11356   11360   11350   11354   11355
   11356   11357   11358   11360   11361   11362   11364   11365   11366   11354
   11356   11357   11358   11361   11363   11364   11352   11353   11359   11359
   11359   11355   11356   11360   11361   11362   11360   11357   11360   11361
   11362   11363   11364   11365   11366   11367   11368   11369   11358   11361
   11362   11363   11364   11367   11368   11361   11363       0       0   11362
   11363   11364   11365   11366   11367   11368   11370   11371   11372   11364
   11365   11366   11367   11369   11370   11364   11365   11367   11368   11369
   11370   11371   11372   11373   11374   11375   11366   11367   11368   11369
   11370   11373   11374   11367   11369   11368   11369   11370   11371   11372
   11373   11374   11376   11370   11371   11372   11373   11375   11376   11370
   11371   11373   11374   11375   11376   11372   11373   11374   11375   11376
   11373   11375   11374   11375   11376   11376   11376       0   11378   11379
   11380   11381   11382   11383   11384   11385   11386   11387   11388   11389
   11390   11391   11392   11393   11394   11379   11380   11381   11382   11383
   11384   11385   11386   11387   11388   11395   11380   11381   11382   11383
   11384   11385   11386   11387   11389   11390   11391   11395   11396   11381
   11382   11383   11384   11385   11386   11390   11392   11393   11394   11396
   11397   11398   11399   11382   11383   11387   11388   11389   11395   11387
   11388   11384   11387   11388   11389   11390   11391   11395   11385   11387
   11389   11390   11391   11392   11396   11386   11390   11391   11392   11393
   11394   11396   11397   11398   11400   11401   11402   11390   11392   11393
   11394   11397   11399   11400   11388   11389   11395   11395   11395   11391
   11392   11396   11397   11398   11396   11393   11396   11397   11398   11399
   11400   11401   11402   11403   11404   11405   11394   11397   11398   11399
   11400   11403   11404   11397   11399       0       0   11398   11399   11400
   11401   11402   11403   11404   11406   11407   11408   11400   11401   11402
   11403   11405   11406   11400   11401   11403   11404   11405   11406   11407
   11408   11409   11410   11411   11402   11403   11404   11405   11406   11409
   11410   11403   11405   11404   11405   11406   11407   11408   11409   11410
   11412   11406   11407   11408   11409   11411   11412   11406   11407   11409
   11410   11411   11412   11408   11409   11410   11411   11412   11409   11411
   11410   11411   11412   11412   11412       0   11414   11415   11416   11417
   11418   11419   11420   11421   11422   11423   11424   11425   11426   11427
   11428   11429   11430   11415   11416   11417   11418   11419   11420   11421
   11422   11423   11424   11431   11416   11417   11418   11419   11420   11421
   11422   11423   11425   11426   11427   11431   11432   11417   11418   11419
   11420   11421   11422   11426   11428   11429   11430   11432   11433   11434
   11435   11418   11419   11423   11424   11425   11431   11423   11424   11420
   11423   11424   11425   11426   11427   11431   11421   11423   11425   11426
   11427   11428   11432   11422   11426   11427   11428   11429   11430   11432
   11433   11434   11436   11437   11438   11426   11428   11429   11430   11433
   11435   11436   11424   11425   11431   11431   11431   11427   11428   11432
   11433   11434   11432   11429   11432   11433   11434   11435   11436   11437
   11438   11439   11440   11441   11430   11433   11434   11435   11436   11439
   11440   11433   11435       0       0   11434   11435   11436   11437   11438
   11439   11440   11442   11443   11444   11436   11437   11438   11439   11441
   11442   11436   11437   11439   11440   11441   11442   11443   11444   11445
   11446   11447   11438   11439   11440   11441   11442   11445   11446   11439
   11441   11440   11441   11442   11443   11444   11445   11446   11448   11442
   11443   11444   11445   11447   11448   11442   11443   11445   11446   11447
   11448   11444   11445   11446   11447   11448   11445   11447   11446   11447
   11448   11448   11448       0   11450   11451   11452   11453   11454   11455
   11456   11457   11458   11459   11460   11461   11462   11463   11464   11465
   11466   11451   11452   11453   11454   11455   11456   11457   11458   11459
   11460   11467   11452   11453   11454   11455   11456   11457   11458   11459
   11461   11462   11463   11467   11468   11453   11454   11455   11456   11457
   11458   11462   11464   11465   11466   11468   11469   11470   11471   11454
   11455   11459   11460   11461   11467   11459   11460   11456   11459   11460
   11461   11462   11463   11467   11457   11459   11461   11462   11463   11464
   11468   11458   11462   11463   11464   11465   11466   11468   11469   11470
   11472   11473   11474   11462   11464   11465   11466   11469   11471   11472
   11460   11461   11467   11467   11467   11463   11464   11468   11469   11470
   11468   11465   11468   11469   11470   11471   11472   11473   11474   11475
   11476   11477   11466   11469   11470   11471   11472   11475   11476   11469
   11471       0       0   11470   11471   11472   11473   11474   11475   11476
   11478   11479   11480   11472   11473   11474   11475   11477   11478   11472
   11473   11475   11476   11477   11478   11479   11480   11481   11482   11483
   11474   11475   11476   11477   11478   11481   11482   11475   11477   11476
   11477   11478   11479   11480   11481   11482   11484   11478   11479   11480
   11481   11483   11484   11478   11479   11481   11482   11483   11484   11480
   11481   11482   11483   11484   11481   11483   11482   11483   11484   11484
   11484       0   11486   11487   11488   11489   11490   11491   11492   11493
   11494   11495   11496   11497   11498   11499   11500   11501   11502   11487
   11488   11489   11490   11491   11492   11493   11494   11495   11496   11503
   11488   11489   11490   11491   11492   11493   11494   11495   11497   11498
   11499   11503   11504   11489   11490   11491   11492   11493   11494   11498
   11500   11501   11502   11504   11505   11506   11507   11490   11491   11495
   11496   11497   11503   11495   11496   11492   11495   11496   11497   11498
   11499   11503   11493   11495   11497   11498   11499   11500   11504   11494
   11498   11499   11500   11501   11502   11504   11505   11506   11508   11509
   11510   11498   11500   11501   11502   11505   11507   11508   11496   11497
   11503   11503   11503   11499   11500   11504   11505   11506   11504   11501
   11504   11505   11506   11507   11508   11509   11510   11511   11512   11513
   11502   11505   11506   11507   11508   11511   11512   11505   11507       0
       0   11506   11507   11508   11509   11510   11511   11512   11514   11515
   11516   11508   11509   11510   11511   11513   11514   11508   11509   11511
   11512   11513   11514   11515   11516   11517   11518   11519   11510   11511
   11512   11513   11514   11517   11518   11511   11513   11512   11513   11514
   11515   11516   11517   11518   11520   11514   11515   11516   11517   11519
   11520   11514   11515   11517   11518   11519   11520   11516   11517   11518
   11519   11520   11517   11519   11518   11519   11520   11520   11520       0
   11522   11523   11524   11525   11526   11527   11528   11529   11530   11531
   11532   11533   11534   11535   11536   11537   11538   11523   11524   11525
   11526   11527   11528   11529   11530   11531   11532   11539   11524   11525
   11526   11527   11528   11529   11530   11531   11533   11534   11535   11539
   11540   11525   11526   11527   11528   11529   11530   11534   11536   11537
   11538   11540   11541   11542   11543   11526   11527   11531   11532   11533
   11539   11531   11532   11528   11531   11532   11533   11534   11535   11539
   11529   11531   11533   11534   11535   11536   11540   11530   11534   11535
   11536   11537   11538   11540   11541   11542   11544   11545   11546   11534
   11536   11537   11538   11541   11543   11544   11532   11533   11539   11539
   11539   11535   11536   11540   11541   11542   11540   11537   11540   11541
   11542   11543   11544   11545   11546   11547   11548   11549   11538   11541
   11542   11543   11544   11547   11548   11541   11543       0       0   11542
   11543   11544   11545   11546   11547   11548   11550   11551   11552   11544
   11545   11546   11547   11549   11550   11544   11545   11547   11548   11549
   11550   11551   11552   11553   11554   11555   11546   11547   11548   11549
   11550   11553   11554   11547   11549   11548   11549   11550   11551   11552
   11553   11554   11556   11550   11551   11552   11553   11555   11556   11550
   11551   11553   11554   11555   11556   11552   11553   11554   11555   11556
   11553   11555   11554   11555   11556   11556   11556       0   11558   11559
   11560   11561   11562   11563   11564   11565   11566   11567   11568   11569
   11570   11571   11572   11573   11574   11559   11560   11561   11562   11563
   11564   11565   11566   11567   11568   11575   11560   11561   11562   11563
   11564   11565   11566   11567   11569   11570   11571   11575   11576   11561
   11562   11563   11564   11565   11566   11570   11572   11573   11574   11576
   11577   11578   11579   11562   11563   11567   11568   11569   11575   11567
   11568   11564   11567   11568   11569   11570   11571   11575   11565   11567
   11569   11570   11571   11572   11576   11566   11570   11571   11572   11573
   11574   11576   11577   11578   11580   11581   11582   11570   11572   11573
   11574   11577   11579   11580   11568   11569   11575   11575   11575   11571
   11572   11576   11577   11578   11576   11573   11576   11577   11578   11579
   11580   11581   11582   11583   11584   11585   11574   11577   11578   11579
   11580   11583   11584   11577   11579       0       0   11578   11579   11580
   11581   11582   11583   11584   11586   11587   11588   11580   11581   11582
   11583   11585   11586   11580   11581   11583   11584   11585   11586   11587
   11588   11589   11590   11591   11582   11583   11584   11585   11586   11589
   11590   11583   11585   11584   11585   11586   11587   11588   11589   11590
   11592   11586   11587   11588   11589   11591   11592   11586   11587   11589
   11590   11591   11592   11588   11589   11590   11591   11592   11589   11591
   11590   11591   11592   11592   11592       0   11594   11595   11596   11597
   11598   11599   11600   11601   11602   11603   11604   11605   11606   11607
   11608   11609   11610   11595   11596   11597   11598   11599   11600   11601
   11602   11603   11604   11611   11596   11597   11598   11599   11600   11601
   11602   11603   11605   11606   11607   11611   11612   11597   11598   11599
   11600   11601   11602   11606   11608   11609   11610   11612   11613   11614
   11615   11598   11599   11603   11604   11605   11611   11603   11604   11600
   11603   11604   11605   11606   11607   11611   11601   11603   11605   11606
   11607   11608   11612   11602   11606   11607   11608   11609   11610   11612
   11613   11614   11616   11617   11618   11606   11608   11609   11610   11613
   11615   11616   11604   11605   11611   11611   11611   11607   11608   11612
   11613   11614   11612   11609   11612   11613   11614   11615   11616   11617
   11618   11619   11620   11621   11610   11613   11614   11615   11616   11619
   11620   11613   11615       0       0   11614   11615   11616   11617   11618
   11619   11620   11622   11623   11624   11616   11617   11618   11619   11621
   11622   11616   11617   11619   11620   11621   11622   11623   11624   11625
   11626   11627   11618   11619   11620   11621   11622   11625   11626   11619
   11621   11620   11621   11622   11623   11624   11625   11626   11628   11622
   11623   11624   11625   11627   11628   11622   11623   11625   11626   11627
   11628   11624   11625   11626   11627   11628   11625   11627   11626   11627
   11628   11628   11628       0   11630   11631   11632   11633   11634   11635
   11636   11637   11638   11639   11640   11641   11642   11643   11644   11645
   11646   11631   11632   11633   11634   11635   11636   11637   11638   11639
   11640   11647   11632   11633   11634   11635   11636   11637   11638   11639
   11641   11642   11643   11647   11648   11633   11634   11635   11636   11637
   11638   11642   11644   11645   11646   11648   11649   11650   11651   11634
   11635   11639   11640   11641   11647   11639   11640   11636   11639   11640
   11641   11642   11643   11647   11637   11639   11641   11642   11643   11644
   11648   11638   11642   11643   11644   11645   11646   11648   11649   11650
   11652   11653   11654   11642   11644   11645   11646   11649   11651   11652
   11640   11641   11647   11647   11647   11643   11644   11648   11649   11650
   11648   11645   11648   11649   11650   11651   11652   11653   11654   11655
   11656   11657   11646   11649   11650   11651   11652   11655   11656   11649
   11651       0       0   11650   11651   11652   11653   11654   11655   11656
   11658   11659   11660   11652   11653   11654   11655   11657   11658   11652
   11653   11655   11656   11657   11658   11659   11660   11661   11662   11663
   11654   11655   11656   11657   11658   11661   11662   11655   11657   11656
   11657   11658   11659   11660   11661   11662   11664   11658   11659   11660
   11661   11663   11664   11658   11659   11661   11662   11663   11664   11660
   11661   11662   11663   11664   11661   11663   11662   11663   11664   11664
   11664       0   11666   11667   11668   11669   11670   11671   11672   11673
   11674   11675   11676   11677   11678   11679   11680   11681   11682   11667
   11668   11669   11670   11671   11672   11673   11674   11675   11676   11683
   11668   11669   11670   11671   11672   11673   11674   11675   11677   11678
   11679   11683   11684   11669   11670   11671   11672   11673   11674   11678
   11680   11681   11682   11684   11685   11686   11687   11670   11671   11675
   11676   11677   11683   11675   11676   11672   11675   11676   11677   11678
   11679   11683   11673   11675   11677   11678   11679   11680   11684   11674
   11678   11679   11680   11681   11682   11684   11685   11686   11688   11689
   11690   11678   11680   11681   11682   11685   11687   11688   11676   11677
   11683   11683   11683   11679   11680   11684   11685   11686   11684   11681
   11684   11685   11686   11687   11688   11689   11690   11691   11692   11693
   11682   11685   11686   11687   11688   11691   11692   11685   11687       0
       0   11686   11687   11688   11689   11690   11691   11692   11694   11695
   11696   11688   11689   11690   11691   11693   11694   11688   11689   11691
   11692   11693   11694   11695   11696   11697   11698   11699   11690   11691
   11692   11693   11694   11697   11698   11691   11693   11692   11693   11694
   11695   11696   11697   11698   11700   11694   11695   11696   11697   11699
   11700   11694   11695   11697   11698   11699   11700   11696   11697   11698
   11699   11700   11697   11699   11698   11699   11700   11700   11700       0
   11702   11703   11704   11705   11706   11707   11708   11709   11710   11711
   11712   11713   11714   11715   11716   11717   11718   11703   11704   11705
   11706   11707   11708   11709   11710   11711   11712   11719   11704   11705
   11706   11707   11708   11709   11710   11711   11713   11714   11715   11719
   11720   11705   11706   11707   11708   11709   11710   11714   11716   11717
   11718   11720   11721   11722   11723   11706   11707   11711   11712   11713
   11719   11711   11712   11708   11711   11712   11713   11714   11715   11719
   11709   11711   11713   11714   11715   11716   11720   11710   11714   11715
   11716   11717   11718   11720   11721   11722   11724   11725   11726   11714
   11716   11717   11718   11721   11723   11724   11712   11713   11719   11719
   11719   11715   11716   11720   11721   11722   11720   11717   11720   11721
   11722   11723   11724   11725   11726   11727   11728   11729   11718   11721
   11722   11723   11724   11727   11728   11721   11723       0       0   11722
   11723   11724   11725   11726   11727   11728   11730   11731   11732   11724
   11725   11726   11727   11729   11730   11724   11725   11727   11728   11729
   11730   11731   11732   11733   11734   11735   11726   11727   11728   11729
   11730   11733   11734   11727   11729   11728   11729   11730   11731   11732
   11733   11734   11736   11730   11731   11732   11733   11735   11736   11730
   11731   11733   11734   11735   11736   11732   11733   11734   11735   11736
   11733   11735   11734   11735   11736   11736   11736       0   11738   11739
   11740   11741   11742   11743   11744   11745   11746   11747   11748   11749
   11750   11751   11752   11753   11754   11739   11740   11741   11742   11743
   11744   11745   11746   11747   11748   11755   11740   11741   11742   11743
   11744   11745   11746   11747   11749   11750   11751   11755   11756   11741
   11742   11743   11744   11745   11746   11750   11752   11753   11754   11756
   11757   11758   11759   11742   11743   11747   11748   11749   11755   11747
   11748   11744   11747   11748   11749   11750   11751   11755   11745   11747
   11749   11750   11751   11752   11756   11746   11750   11751   11752   11753
   11754   11756   11757   11758   11760   11761   11762   11750   11752   11753
   11754   11757   11759   11760   11748   11749   11755   11755   11755   11751
   11752   11756   11757   11758   11756   11753   11756   11757   11758   11759
   11760   11761   11762   11763   11764   11765   11754   11757   11758   11759
   11760   11763   11764   11757   11759       0       0   11758   11759   11760
   11761   11762   11763   11764   11766   11767   11768   11760   11761   11762
   11763   11765   11766   11760   11761   11763   11764   11765   11766   11767
   11768   11769   11770   11771   11762   11763   11764   11765   11766   11769
   11770   11763   11765   11764   11765   11766   11767   11768   11769   11770
   11772   11766   11767   11768   11769   11771   11772   11766   11767   11769
   11770   11771   11772   11768   11769   11770   11771   11772   11769   11771
   11770   11771   11772   11772   11772       0   11774   11775   11776   11777
   11778   11779   11780   11781   11782   11783   11784   11785   11786   11787
   11788   11789   11790   11775   11776   11777   11778   11779   11780   11781
   11782   11783   11784   11791   11776   11777   11778   11779   11780   11781
   11782   11783   11785   11786   11787   11791   11792   11777   11778   11779
   11780   11781   11782   11786   11788   11789   11790   11792   11793   11794
   11795   11778   11779   11783   11784   11785   11791   11783   11784   11780
   11783   11784   11785   11786   11787   11791   11781   11783   11785   11786
   11787   11788   11792   11782   11786   11787   11788   11789   11790   11792
   11793   11794   11796   11797   11798   11786   11788   11789   11790   11793
   11795   11796   11784   11785   11791   11791   11791   11787   11788   11792
   11793   11794   11792   11789   11792   11793   11794   11795   11796   11797
   11798   11799   11800   11801   11790   11793   11794   11795   11796   11799
   11800   11793   11795       0       0   11794   11795   11796   11797   11798
   11799   11800   11802   11803   11804   11796   11797   11798   11799   11801
   11802   11796   11797   11799   11800   11801   11802   11803   11804   11805
   11806   11807   11798   11799   11800   11801   11802   11805   11806   11799
   11801   11800   11801   11802   11803   11804   11805   11806   11808   11802
   11803   11804   11805   11807   11808   11802   11803   11805   11806   11807
   11808   11804   11805   11806   11807   11808   11805   11807   11806   11807
   11808   11808   11808       0   11810   11811   11812   11813   11814   11815
   11816   11817   11818   11819   11820   11821   11822   11823   11824   11825
   11826   11811   11812   11813   11814   11815   11816   11817   11818   11819
   11820   11827   11812   11813   11814   11815   11816   11817   11818   11819
   11821   11822   11823   11827   11828   11813   11814   11815   11816   11817
   11818   11822   11824   11825   11826   11828   11829   11830   11831   11814
   11815   11819   11820   11821   11827   11819   11820   11816   11819   11820
   11821   11822   11823   11827   11817   11819   11821   11822   11823   11824
   11828   11818   11822   11823   11824   11825   11826   11828   11829   11830
   11832   11833   11834   11822   11824   11825   11826   11829   11831   11832
   11820   11821   11827   11827   11827   11823   11824   11828   11829   11830
   11828   11825   11828   11829   11830   11831   11832   11833   11834   11835
   11836   11837   11826   11829   11830   11831   11832   11835   11836   11829
   11831       0       0   11830   11831   11832   11833   11834   11835   11836
   11838   11839   11840   11832   11833   11834   11835   11837   11838   11832
   11833   11835   11836   11837   11838   11839   11840   11841   11842   11843
   11834   11835   11836   11837   11838   11841   11842   11835   11837   11836
   11837   11838   11839   11840   11841   11842   11844   11838   11839   11840
   11841   11843   11844   11838   11839   11841   11842   11843   11844   11840
   11841   11842   11843   11844   11841   11843   11842   11843   11844   11844
   11844       0   11846   11847   11848   11849   11850   11851   11852   11853
   11854   11855   11856   11857   11858   11859   11860   11861   11862   11847
   11848   11849   11850   11851   11852   11853   11854   11855   11856   11863
   11848   11849   11850   11851   11852   11853   11854   11855   11857   11858
   11859   11863   11864   11849   11850   11851   11852   11853   11854   11858
   11860   11861   11862   11864   11865   11866   11867   11850   11851   11855
   11856   11857   11863   11855   11856   11852   11855   11856   11857   11858
   11859   11863   11853   11855   11857   11858   11859   11860   11864   11854
   11858   11859   11860   11861   11862   11864   11865   11866   11868   11869
   11870   11858   11860   11861   11862   11865   11867   11868   11856   11857
   11863   11863   11863   11859   11860   11864   11865   11866   11864   11861
   11864   11865   11866   11867   11868   11869   11870   11871   11872   11873
   11862   11865   11866   11867   11868   11871   11872   11865   11867       0
       0   11866   11867   11868   11869   11870   11871   11872   11874   11875
   11876   11868   11869   11870   11871   11873   11874   11868   11869   11871
   11872   11873   11874   11875   11876   11877   11878   11879   11870   11871
   11872   11873   11874   11877   11878   11871   11873   11872   11873   11874
   11875   11876   11877   11878   11880   11874   11875   11876   11877   11879
   11880   11874   11875   11877   11878   11879   11880   11876   11877   11878
   11879   11880   11877   11879   11878   11879   11880   11880   11880       0
   11882   11883   11884   11885   11886   11887   11888   11889   11890   11891
   11892   11893   11894   11895   11896   11897   11898   11883   11884   11885
   11886   11887   11888   11889   11890   11891   11892   11899   11884   11885
   11886   11887   11888   11889   11890   11891   11893   11894   11895   11899
   11900   11885   11886   11887   11888   11889   11890   11894   11896   11897
   11898   11900   11901   11902   11903   11886   11887   11891   11892   11893
   11899   11891   11892   11888   11891   11892   11893   11894   11895   11899
   11889   11891   11893   11894   11895   11896   11900   11890   11894   11895
   11896   11897   11898   11900   11901   11902   11904   11905   11906   11894
   11896   11897   11898   11901   11903   11904   11892   11893   11899   11899
   11899   11895   11896   11900   11901   11902   11900   11897   11900   11901
   11902   11903   11904   11905   11906   11907   11908   11909   11898   11901
   11902   11903   11904   11907   11908   11901   11903       0       0   11902
   11903   11904   11905   11906   11907   11908   11910   11911   11912   11904
   11905   11906   11907   11909   11910   11904   11905   11907   11908   11909
   11910   11911   11912   11913   11914   11915   11906   11907   11908   11909
   11910   11913   11914   11907   11909   11908   11909   11910   11911   11912
   11913   11914   11916   11910   11911   11912   11913   11915   11916   11910
   11911   11913   11914   11915   11916   11912   11913   11914   11915   11916
   11913   11915   11914   11915   11916   11916   11916       0   11918   11919
   11920   11921   11922   11923   11924   11925   11926   11927   11928   11929
   11930   11931   11932   11933   11934   11919   11920   11921   11922   11923
   11924   11925   11926   11927   11928   11935   11920   11921   11922   11923
   11924   11925   11926   11927   11929   11930   11931   11935   11936   11921
   11922   11923   11924   11925   11926   11930   11932   11933   11934   11936
   11937   11938   11939   11922   11923   11927   11928   11929   11935   11927
   11928   11924   11927   11928   11929   11930   11931   11935   11925   11927
   11929   11930   11931   11932   11936   11926   11930   11931   11932   11933
   11934   11936   11937   11938   11940   11941   11942   11930   11932   11933
   11934   11937   11939   11940   11928   11929   11935   11935   11935   11931
   11932   11936   11937   11938   11936   11933   11936   11937   11938   11939
   11940   11941   11942   11943   11944   11945   11934   11937   11938   11939
   11940   11943   11944   11937   11939       0       0   11938   11939   11940
   11941   11942   11943   11944   11946   11947   11948   11940   11941   11942
   11943   11945   11946   11940   11941   11943   11944   11945   11946   11947
   11948   11949   11950   11951   11942   11943   11944   11945   11946   11949
   11950   11943   11945   11944   11945   11946   11947   11948   11949   11950
   11952   11946   11947   11948   11949   11951   11952   11946   11947   11949
   11950   11951   11952   11948   11949   11950   11951   11952   11949   11951
   11950   11951   11952   11952   11952       0   11954   11955   11956   11957
   11958   11959   11960   11961   11962   11963   11964   11965   11966   11967
   11968   11969   11970   11955   11956   11957   11958   11959   11960   11961
   11962   11963   11964   11971   11956   11957   11958   11959   11960   11961
   11962   11963   11965   11966   11967   11971   11972   11957   11958   11959
   11960   11961   11962   11966   11968   11969   11970   11972   11973   11974
   11975   11958   11959   11963   11964   11965   11971   11963   11964   11960
   11963   11964   11965   11966   11967   11971   11961   11963   11965   11966
   11967   11968   11972   11962   11966   11967   11968   11969   11970   11972
   11973   11974   11976   11977   11978   11966   11968   11969   11970   11973
   11975   11976   11964   11965   11971   11971   11971   11967   11968   11972
   11973   11974   11972   11969   11972   11973   11974   11975   11976   11977
   11978   11979   11980   11981   11970   11973   11974   11975   11976   11979
   11980   11973   11975       0       0   11974   11975   11976   11977   11978
   11979   11980   11982   11983   11984   11976   11977   11978   11979   11981
   11982   11976   11977   11979   11980   11981   11982   11983   11984   11985
   11986   11987   11978   11979   11980   11981   11982   11985   11986   11979
   11981   11980   11981   11982   11983   11984   11985   11986   11988   11982
   11983   11984   11985   11987   11988   11982   11983   11985   11986   11987
   11988   11984   11985   11986   11987   11988   11985   11987   11986   11987
   11988   11988   11988       0   11990   11991   11992   11993   11994   11995
   11996   11997   11998   11999   12000   12001   12002   12003   12004   12005
   12006   11991   11992   11993   11994   11995   11996   11997   11998   11999
   12000   12007   11992   11993   11994   11995   11996   11997   11998   11999
   12001   12002   12003   12007   12008   11993   11994   11995   11996   11997
   11998   12002   12004   12005   12006   12008   12009   12010   12011   11994
   11995   11999   12000   12001   12007   11999   12000   11996   11999   12000
   12001   12002   12003   12007   11997   11999   12001   12002   12003   12004
   12008   11998   12002   12003   12004   12005   12006   12008   12009   12010
   12012   12013   12014   12002   12004   12005   12006   12009   12011   12012
   12000   12001   12007   12007   12007   12003   12004   12008   12009   12010
   12008   12005   12008   12009   12010   12011   12012   12013   12014   12015
   12016   12017   12006   12009   12010   12011   12012   12015   12016   12009
   12011       0       0   12010   12011   12012   12013   12014   12015   12016
   12018   12019   12020   12012   12013   12014   12015   12017   12018   12012
   12013   12015   12016   12017   12018   12019   12020   12021   12022   12023
   12014   12015   12016   12017   12018   12021   12022   12015   12017   12016
   12017   12018   12019   12020   12021   12022   12024   12018   12019   12020
   12021   12023   12024   12018   12019   12021   12022   12023   12024   12020
   12021   12022   12023   12024   12021   12023   12022   12023   12024   12024
   12024       0   12026   12027   12028   12029   12030   12031   12032   12033
   12034   12035   12036   12037   12038   12039   12040   12041   12042   12027
   12028   12029   12030   12031   12032   12033   12034   12035   12036   12043
   12028   12029   12030   12031   12032   12033   12034   12035   12037   12038
   12039   12043   12044   12029   12030   12031   12032   12033   12034   12038
   12040   12041   12042   12044   12045   12046   12047   12030   12031   12035
   12036   12037   12043   12035   12036   12032   12035   12036   12037   12038
   12039   12043   12033   12035   12037   12038   12039   12040   12044   12034
   12038   12039   12040   12041   12042   12044   12045   12046   12048   12049
   12050   12038   12040   12041   12042   12045   12047   12048   12036   12037
   12043   12043   12043   12039   12040   12044   12045   12046   12044   12041
   12044   12045   12046   12047   12048   12049   12050   12051   12052   12053
   12042   12045   12046   12047   12048   12051   12052   12045   12047       0
       0   12046   12047   12048   12049   12050   12051   12052   12054   12055
   12056   12048   12049   12050   12051   12053   12054   12048   12049   12051
   12052   12053   12054   12055   12056   12057   12058   12059   12050   12051
   12052   12053   12054   12057   12058   12051   12053   12052   12053   12054
   12055   12056   12057   12058   12060   12054   12055   12056   12057   12059
   12060   12054   12055   12057   12058   12059   12060   12056   12057   12058
   12059   12060   12057   12059   12058   12059   12060   12060   12060       0
   12062   12063   12064   12065   12066   12067   12068   12069   12070   12071
   12072   12073   12074   12075   12076   12077   12078   12063   12064   12065
   12066   12067   12068   12069   12070   12071   12072   12079   12064   12065
   12066   12067   12068   12069   12070   12071   12073   12074   12075   12079
   12080   12065   12066   12067   12068   12069   12070   12074   12076   12077
   12078   12080   12081   12082   12083   12066   12067   12071   12072   12073
   12079   12071   12072   12068   12071   12072   12073   12074   12075   12079
   12069   12071   12073   12074   12075   12076   12080   12070   12074   12075
   12076   12077   12078   12080   12081   12082   12084   12085   12086   12074
   12076   12077   12078   12081   12083   12084   12072   12073   12079   12079
   12079   12075   12076   12080   12081   12082   12080   12077   12080   12081
   12082   12083   12084   12085   12086   12087   12088   12089   12078   12081
   12082   12083   12084   12087   12088   12081   12083       0       0   12082
   12083   12084   12085   12086   12087   12088   12090   12091   12092   12084
   12085   12086   12087   12089   12090   12084   12085   12087   12088   12089
   12090   12091   12092   12093   12094   12095   12086   12087   12088   12089
   12090   12093   12094   12087   12089   12088   12089   12090   12091   12092
   12093   12094   12096   12090   12091   12092   12093   12095   12096   12090
   12091   12093   12094   12095   12096   12092   12093   12094   12095   12096
   12093   12095   12094   12095   12096   12096   12096       0   12098   12099
   12100   12101   12102   12103   12104   12105   12106   12107   12108   12109
   12110   12111   12112   12113   12114   12099   12100   12101   12102   12103
   12104   12105   12106   12107   12108   12115   12100   12101   12102   12103
   12104   12105   12106   12107   12109   12110   12111   12115   12116   12101
   12102   12103   12104   12105   12106   12110   12112   12113   12114   12116
   12117   12118   12119   12102   12103   12107   12108   12109   12115   12107
   12108   12104   12107   12108   12109   12110   12111   12115   12105   12107
   12109   12110   12111   12112   12116   12106   12110   12111   12112   12113
   12114   12116   12117   12118   12120   12121   12122   12110   12112   12113
   12114   12117   12119   12120   12108   12109   12115   12115   12115   12111
   12112   12116   12117   12118   12116   12113   12116   12117   12118   12119
   12120   12121   12122   12123   12124   12125   12114   12117   12118   12119
   12120   12123   12124   12117   12119       0       0   12118   12119   12120
   12121   12122   12123   12124   12126   12127   12128   12120   12121   12122
   12123   12125   12126   12120   12121   12123   12124   12125   12126   12127
   12128   12129   12130   12131   12122   12123   12124   12125   12126   12129
   12130   12123   12125   12124   12125   12126   12127   12128   12129   12130
   12132   12126   12127   12128   12129   12131   12132   12126   12127   12129
   12130   12131   12132   12128   12129   12130   12131   12132   12129   12131
   12130   12131   12132   12132   12132       0   12134   12135   12136   12137
   12138   12139   12140   12141   12142   12143   12144   12145   12146   12147
   12148   12149   12150   12135   12136   12137   12138   12139   12140   12141
   12142   12143   12144   12151   12136   12137   12138   12139   12140   12141
   12142   12143   12145   12146   12147   12151   12152   12137   12138   12139
   12140   12141   12142   12146   12148   12149   12150   12152   12153   12154
   12155   12138   12139   12143   12144   12145   12151   12143   12144   12140
   12143   12144   12145   12146   12147   12151   12141   12143   12145   12146
   12147   12148   12152   12142   12146   12147   12148   12149   12150   12152
   12153   12154   12156   12157   12158   12146   12148   12149   12150   12153
   12155   12156   12144   12145   12151   12151   12151   12147   12148   12152
   12153   12154   12152   12149   12152   12153   12154   12155   12156   12157
   12158   12159   12160   12161   12150   12153   12154   12155   12156   12159
   12160   12153   12155       0       0   12154   12155   12156   12157   12158
   12159   12160   12162   12163   12164   12156   12157   12158   12159   12161
   12162   12156   12157   12159   12160   12161   12162   12163   12164   12165
   12166   12167   12158   12159   12160   12161   12162   12165   12166   12159
   12161   12160   12161   12162   12163   12164   12165   12166   12168   12162
   12163   12164   12165   12167   12168   12162   12163   12165   12166   12167
   12168   12164   12165   12166   12167   12168   12165   12167   12166   12167
   12168   12168   12168       0   12170   12171   12172   12173   12174   12175
   12176   12177   12178   12179   12180   12181   12182   12183   12184   12185
   12186   12171   12172   12173   12174   12175   12176   12177   12178   12179
   12180   12187   12172   12173   12174   12175   12176   12177   12178   12179
   12181   12182   12183   12187   12188   12173   12174   12175   12176   12177
   12178   12182   12184   12185   12186   12188   12189   12190   12191   12174
   12175   12179   12180   12181   12187   12179   12180   12176   12179   12180
   12181   12182   12183   12187   12177   12179   12181   12182   12183   12184
   12188   12178   12182   12183   12184   12185   12186   12188   12189   12190
   12192   12193   12194   12182   12184   12185   12186   12189   12191   12192
   12180   12181   12187   12187   12187   12183   12184   12188   12189   12190
   12188   12185   12188   12189   12190   12191   12192   12193   12194   12195
   12196   12197   12186   12189   12190   12191   12192   12195   12196   12189
   12191       0       0   12190   12191   12192   12193   12194   12195   12196
   12198   12199   12200   12192   12193   12194   12195   12197   12198   12192
   12193   12195   12196   12197   12198   12199   12200   12201   12202   12203
   12194   12195   12196   12197   12198   12201   12202   12195   12197   12196
   12197   12198   12199   12200   12201   12202   12204   12198   12199   12200
   12201   12203   12204   12198   12199   12201   12202   12203   12204   12200
   12201   12202   12203   12204   12201   12203   12202   12203   12204   12204
   12204       0   12206   12207   12208   12209   12210   12211   12212   12213
   12214   12215   12216   12217   12218   12219   12220   12221   12222   12207
   12208   12209   12210   12211   12212   12213   12214   12215   12216   12223
   12208   12209   12210   12211   12212   12213   12214   12215   12217   12218
   12219   12223   12224   12209   12210   12211   12212   12213   12214   12218
   12220   12221   12222   12224   12225   12226   12227   12210   12211   12215
   12216   12217   12223   12215   12216   12212   12215   12216   12217   12218
   12219   12223   12213   12215   12217   12218   12219   12220   12224   12214
   12218   12219   12220   12221   12222   12224   12225   12226   12228   12229
   12230   12218   12220   12221   12222   12225   12227   12228   12216   12217
   12223   12223   12223   12219   12220   12224   12225   12226   12224   12221
   12224   12225   12226   12227   12228   12229   12230   12231   12232   12233
   12222   12225   12226   12227   12228   12231   12232   12225   12227       0
       0   12226   12227   12228   12229   12230   12231   12232   12234   12235
   12236   12228   12229   12230   12231   12233   12234   12228   12229   12231
   12232   12233   12234   12235   12236   12237   12238   12239   12230   12231
   12232   12233   12234   12237   12238   12231   12233   12232   12233   12234
   12235   12236   12237   12238   12240   12234   12235   12236   12237   12239
   12240   12234   12235   12237   12238   12239   12240   12236   12237   12238
   12239   12240   12237   12239   12238   12239   12240   12240   12240       0
   12242   12243   12244   12245   12246   12247   12248   12249   12250   12251
   12252   12253   12254   12255   12256   12257   12258   12243   12244   12245
   12246   12247   12248   12249   12250   12251   12252   12259   12244   12245
   12246   12247   12248   12249   12250   12251   12253   12254   12255   12259
   12260   12245   12246   12247   12248   12249   12250   12254   12256   12257
   12258   12260   12261   12262   12263   12246   12247   12251   12252   12253
   12259   12251   12252   12248   12251   12252   12253   12254   12255   12259
   12249   12251   12253   12254   12255   12256   12260   12250   12254   12255
   12256   12257   12258   12260   12261   12262   12264   12265   12266   12254
   12256   12257   12258   12261   12263   12264   12252   12253   12259   12259
   12259   12255   12256   12260   12261   12262   12260   12257   12260   12261
   12262   12263   12264   12265   12266   12267   12268   12269   12258   12261
   12262   12263   12264   12267   12268   12261   12263       0       0   12262
   12263   12264   12265   12266   12267   12268   12270   12271   12272   12264
   12265   12266   12267   12269   12270   12264   12265   12267   12268   12269
   12270   12271   12272   12273   12274   12275   12266   12267   12268   12269
   12270   12273   12274   12267   12269   12268   12269   12270   12271   12272
   12273   12274   12276   12270   12271   12272   12273   12275   12276   12270
   12271   12273   12274   12275   12276   12272   12273   12274   12275   12276
   12273   12275   12274   12275   12276   12276   12276       0   12278   12279
   12280   12281   12282   12283   12284   12285   12286   12287   12288   12289
   12290   12291   12292   12293   12294   12279   12280   12281   12282   12283
   12284   12285   12286   12287   12288   12295   12280   12281   12282   12283
   12284   12285   12286   12287   12289   12290   12291   12295   12296   12281
   12282   12283   12284   12285   12286   12290   12292   12293   12294   12296
   12297   12298   12299   12282   12283   12287   12288   12289   12295   12287
   12288   12284   12287   12288   12289   12290   12291   12295   12285   12287
   12289   12290   12291   12292   12296   12286   12290   12291   12292   12293
   12294   12296   12297   12298   12300   12301   12302   12290   12292   12293
   12294   12297   12299   12300   12288   12289   12295   12295   12295   12291
   12292   12296   12297   12298   12296   12293   12296   12297   12298   12299
   12300   12301   12302   12303   12304   12305   12294   12297   12298   12299
   12300   12303   12304   12297   12299       0       0   12298   12299   12300
   12301   12302   12303   12304   12306   12307   12308   12300   12301   12302
   12303   12305   12306   12300   12301   12303   12304   12305   12306   12307
   12308   12309   12310   12311   12302   12303   12304   12305   12306   12309
   12310   12303   12305   12304   12305   12306   12307   12308   12309   12310
   12312   12306   12307   12308   12309   12311   12312   12306   12307   12309
   12310   12311   12312   12308   12309   12310   12311   12312   12309   12311
   12310   12311   12312   12312   12312       0   12314   12315   12316   12317
   12318   12319   12320   12321   12322   12323   12324   12325   12326   12327
   12328   12329   12330   12315   12316   12317   12318   12319   12320   12321
   12322   12323   12324   12331   12316   12317   12318   12319   12320   12321
   12322   12323   12325   12326   12327   12331   12332   12317   12318   12319
   12320   12321   12322   12326   12328   12329   12330   12332   12333   12334
   12335   12318   12319   12323   12324   12325   12331   12323   12324   12320
   12323   12324   12325   12326   12327   12331   12321   12323   12325   12326
   12327   12328   12332   12322   12326   12327   12328   12329   12330   12332
   12333   12334   12336   12337   12338   12326   12328   12329   12330   12333
   12335   12336   12324   12325   12331   12331   12331   12327   12328   12332
   12333   12334   12332   12329   12332   12333   12334   12335   12336   12337
   12338   12339   12340   12341   12330   12333   12334   12335   12336   12339
   12340   12333   12335       0       0   12334   12335   12336   12337   12338
   12339   12340   12342   12343   12344   12336   12337   12338   12339   12341
   12342   12336   12337   12339   12340   12341   12342   12343   12344   12345
   12346   12347   12338   12339   12340   12341   12342   12345   12346   12339
   12341   12340   12341   12342   12343   12344   12345   12346   12348   12342
   12343   12344   12345   12347   12348   12342   12343   12345   12346   12347
   12348   12344   12345   12346   12347   12348   12345   12347   12346   12347
   12348   12348   12348       0   12350   12351   12352   12353   12354   12355
   12356   12357   12358   12359   12360   12361   12362   12363   12364   12365
   12366   12351   12352   12353   12354   12355   12356   12357   12358   12359
   12360   12367   12352   12353   12354   12355   12356   12357   12358   12359
   12361   12362   12363   12367   12368   12353   12354   12355   12356   12357
   12358   12362   12364   12365   12366   12368   12369   12370   12371   12354
   12355   12359   12360   12361   12367   12359   12360   12356   12359   12360
   12361   12362   12363   12367   12357   12359   12361   12362   12363   12364
   12368   12358   12362   12363   12364   12365   12366   12368   12369   12370
   12372   12373   12374   12362   12364   12365   12366   12369   12371   12372
   12360   12361   12367   12367   12367   12363   12364   12368   12369   12370
   12368   12365   12368   12369   12370   12371   12372   12373   12374   12375
   12376   12377   12366   12369   12370   12371   12372   12375   12376   12369
   12371       0       0   12370   12371   12372   12373   12374   12375   12376
   12378   12379   12380   12372   12373   12374   12375   12377   12378   12372
   12373   12375   12376   12377   12378   12379   12380   12381   12382   12383
   12374   12375   12376   12377   12378   12381   12382   12375   12377   12376
   12377   12378   12379   12380   12381   12382   12384   12378   12379   12380
   12381   12383   12384   12378   12379   12381   12382   12383   12384   12380
   12381   12382   12383   12384   12381   12383   12382   12383   12384   12384
   12384       0   12386   12387   12388   12389   12390   12391   12392   12393
   12394   12395   12396   12397   12398   12399   12400   12401   12402   12387
   12388   12389   12390   12391   12392   12393   12394   12395   12396   12403
   12388   12389   12390   12391   12392   12393   12394   12395   12397   12398
   12399   12403   12404   12389   12390   12391   12392   12393   12394   12398
   12400   12401   12402   12404   12405   12406   12407   12390   12391   12395
   12396   12397   12403   12395   12396   12392   12395   12396   12397   12398
   12399   12403   12393   12395   12397   12398   12399   12400   12404   12394
   12398   12399   12400   12401   12402   12404   12405   12406   12408   12409
   12410   12398   12400   12401   12402   12405   12407   12408   12396   12397
   12403   12403   12403   12399   12400   12404   12405   12406   12404   12401
   12404   12405   12406   12407   12408   12409   12410   12411   12412   12413
   12402   12405   12406   12407   12408   12411   12412   12405   12407       0
       0   12406   12407   12408   12409   12410   12411   12412   12414   12415
   12416   12408   12409   12410   12411   12413   12414   12408   12409   12411
   12412   12413   12414   12415   12416   12417   12418   12419   12410   12411
   12412   12413   12414   12417   12418   12411   12413   12412   12413   12414
   12415   12416   12417   12418   12420   12414   12415   12416   12417   12419
   12420   12414   12415   12417   12418   12419   12420   12416   12417   12418
   12419   12420   12417   12419   12418   12419   12420   12420   12420       0
   12422   12423   12424   12425   12426   12427   12428   12429   12430   12431
   12432   12433   12434   12435   12436   12437   12438   12423   12424   12425
   12426   12427   12428   12429   12430   12431   12432   12439   12424   12425
   12426   12427   12428   12429   12430   12431   12433   12434   12435   12439
   12440   12425   12426   12427   12428   12429   12430   12434   12436   12437
   12438   12440   12441   12442   12443   12426   12427   12431   12432   12433
   12439   12431   12432   12428   12431   12432   12433   12434   12435   12439
   12429   12431   12433   12434   12435   12436   12440   12430   12434   12435
   12436   12437   12438   12440   12441   12442   12444   12445   12446   12434
   12436   12437   12438   12441   12443   12444   12432   12433   12439   12439
   12439   12435   12436   12440   12441   12442   12440   12437   12440   12441
   12442   12443   12444   12445   12446   12447   12448   12449   12438   12441
   12442   12443   12444   12447   12448   12441   12443       0       0   12442
   12443   12444   12445   12446   12447   12448   12450   12451   12452   12444
   12445   12446   12447   12449   12450   12444   12445   12447   12448   12449
   12450   12451   12452   12453   12454   12455   12446   12447   12448   12449
   12450   12453   12454   12447   12449   12448   12449   12450   12451   12452
   12453   12454   12456   12450   12451   12452   12453   12455   12456   12450
   12451   12453   12454   12455   12456   12452   12453   12454   12455   12456
   12453   12455   12454   12455   12456   12456   12456       0   12458   12459
   12460   12461   12462   12463   12464   12465   12466   12467   12468   12469
   12470   12471   12472   12473   12474   12459   12460   12461   12462   12463
   12464   12465   12466   12467   12468   12475   12460   12461   12462   12463
   12464   12465   12466   12467   12469   12470   12471   12475   12476   12461
   12462   12463   12464   12465   12466   12470   12472   12473   12474   12476
   12477   12478   12479   12462   12463   12467   12468   12469   12475   12467
   12468   12464   12467   12468   12469   12470   12471   12475   12465   12467
   12469   12470   12471   12472   12476   12466   12470   12471   12472   12473
   12474   12476   12477   12478   12480   12481   12482   12470   12472   12473
   12474   12477   12479   12480   12468   12469   12475   12475   12475   12471
   12472   12476   12477   12478   12476   12473   12476   12477   12478   12479
   12480   12481   12482   12483   12484   12485   12474   12477   12478   12479
   12480   12483   12484   12477   12479       0       0   12478   12479   12480
   12481   12482   12483   12484   12486   12487   12488   12480   12481   12482
   12483   12485   12486   12480   12481   12483   12484   12485   12486   12487
   12488   12489   12490   12491   12482   12483   12484   12485   12486   12489
   12490   12483   12485   12484   12485   12486   12487   12488   12489   12490
   12492   12486   12487   12488   12489   12491   12492   12486   12487   12489
   12490   12491   12492   12488   12489   12490   12491   12492   12489   12491
   12490   12491   12492   12492   12492       0   12494   12495   12496   12497
   12498   12499   12500   12501   12502   12503   12504   12505   12506   12507
   12508   12509   12510   12495   12496   12497   12498   12499   12500   12501
   12502   12503   12504   12511   12496   12497   12498   12499   12500   12501
   12502   12503   12505   12506   12507   12511   12512   12497   12498   12499
   12500   12501   12502   12506   12508   12509   12510   12512   12513   12514
   12515   12498   12499   12503   12504   12505   12511   12503   12504   12500
   12503   12504   12505   12506   12507   12511   12501   12503   12505   12506
   12507   12508   12512   12502   12506   12507   12508   12509   12510   12512
   12513   12514   12516   12517   12518   12506   12508   12509   12510   12513
   12515   12516   12504   12505   12511   12511   12511   12507   12508   12512
   12513   12514   12512   12509   12512   12513   12514   12515   12516   12517
   12518   12519   12520   12521   12510   12513   12514   12515   12516   12519
   12520   12513   12515       0       0   12514   12515   12516   12517   12518
   12519   12520   12522   12523   12524   12516   12517   12518   12519   12521
   12522   12516   12517   12519   12520   12521   12522   12523   12524   12525
   12526   12527   12518   12519   12520   12521   12522   12525   12526   12519
   12521   12520   12521   12522   12523   12524   12525   12526   12528   12522
   12523   12524   12525   12527   12528   12522   12523   12525   12526   12527
   12528   12524   12525   12526   12527   12528   12525   12527   12526   12527
   12528   12528   12528       0   12530   12531   12532   12533   12534   12535
   12536   12537   12538   12539   12540   12541   12542   12543   12544   12545
   12546   12531   12532   12533   12534   12535   12536   12537   12538   12539
   12540   12547   12532   12533   12534   12535   12536   12537   12538   12539
   12541   12542   12543   12547   12548   12533   12534   12535   12536   12537
   12538   12542   12544   12545   12546   12548   12549   12550   12551   12534
   12535   12539   12540   12541   12547   12539   12540   12536   12539   12540
   12541   12542   12543   12547   12537   12539   12541   12542   12543   12544
   12548   12538   12542   12543   12544   12545   12546   12548   12549   12550
   12552   12553   12554   12542   12544   12545   12546   12549   12551   12552
   12540   12541   12547   12547   12547   12543   12544   12548   12549   12550
   12548   12545   12548   12549   12550   12551   12552   12553   12554   12555
   12556   12557   12546   12549   12550   12551   12552   12555   12556   12549
   12551       0       0   12550   12551   12552   12553   12554   12555   12556
   12558   12559   12560   12552   12553   12554   12555   12557   12558   12552
   12553   12555   12556   12557   12558   12559   12560   12561   12562   12563
   12554   12555   12556   12557   12558   12561   12562   12555   12557   12556
   12557   12558   12559   12560   12561   12562   12564   12558   12559   12560
   12561   12563   12564   12558   12559   12561   12562   12563   12564   12560
   12561   12562   12563   12564   12561   12563   12562   12563   12564   12564
   12564       0   12566   12567   12568   12569   12570   12571   12572   12573
   12574   12575   12576   12577   12578   12579   12580   12581   12582   12567
   12568   12569   12570   12571   12572   12573   12574   12575   12576   12583
   12568   12569   12570   12571   12572   12573   12574   12575   12577   12578
   12579   12583   12584   12569   12570   12571   12572   12573   12574   12578
   12580   12581   12582   12584   12585   12586   12587   12570   12571   12575
   12576   12577   12583   12575   12576   12572   12575   12576   12577   12578
   12579   12583   12573   12575   12577   12578   12579   12580   12584   12574
   12578   12579   12580   12581   12582   12584   12585   12586   12588   12589
   12590   12578   12580   12581   12582   12585   12587   12588   12576   12577
   12583   12583   12583   12579   12580   12584   12585   12586   12584   12581
   12584   12585   12586   12587   12588   12589   12590   12591   12592   12593
   12582   12585   12586   12587   12588   12591   12592   12585   12587       0
       0   12586   12587   12588   12589   12590   12591   12592   12594   12595
   12596   12588   12589   12590   12591   12593   12594   12588   12589   12591
   12592   12593   12594   12595   12596   12597   12598   12599   12590   12591
   12592   12593   12594   12597   12598   12591   12593   12592   12593   12594
   12595   12596   12597   12598   12600   12594   12595   12596   12597   12599
   12600   12594   12595   12597   12598   12599   12600   12596   12597   12598
   12599   12600   12597   12599   12598   12599   12600   12600   12600       0
   12602   12603   12604   12605   12606   12607   12608   12609   12610   12611
   12612   12613   12614   12615   12616   12617   12618   12603   12604   12605
   12606   12607   12608   12609   12610   12611   12612   12619   12604   12605
   12606   12607   12608   12609   12610   12611   12613   12614   12615   12619
   12620   12605   12606   12607   12608   12609   12610   12614   12616   12617
   12618   12620   12621   12622   12623   12606   12607   12611   12612   12613
   12619   12611   12612   12608   12611   12612   12613   12614   12615   12619
   12609   12611   12613   12614   12615   12616   12620   12610   12614   12615
   12616   12617   12618   12620   12621   12622   12624   12625   12626   12614
   12616   12617   12618   12621   12623   12624   12612   12613   12619   12619
   12619   12615   12616   12620   12621   12622   12620   12617   12620   12621
   12622   12623   12624   12625   12626   12627   12628   12629   12618   12621
   12622   12623   12624   12627   12628   12621   12623       0       0   12622
   12623   12624   12625   12626   12627   12628   12630   12631   12632   12624
   12625   12626   12627   12629   12630   12624   12625   12627   12628   12629
   12630   12631   12632   12633   12634   12635   12626   12627   12628   12629
   12630   12633   12634   12627   12629   12628   12629   12630   12631   12632
   12633   12634   12636   12630   12631   12632   12633   12635   12636   12630
   12631   12633   12634   12635   12636   12632   12633   12634   12635   12636
   12633   12635   12634   12635   12636   12636   12636       0   12638   12639
   12640   12641   12642   12643   12644   12645   12646   12647   12648   12649
   12650   12651   12652   12653   12654   12639   12640   12641   12642   12643
   12644   12645   12646   12647   12648   12655   12640   12641   12642   12643
   12644   12645   12646   12647   12649   12650   12651   12655   12656   12641
   12642   12643   12644   12645   12646   12650   12652   12653   12654   12656
   12657   12658   12659   12642   12643   12647   12648   12649   12655   12647
   12648   12644   12647   12648   12649   12650   12651   12655   12645   12647
   12649   12650   12651   12652   12656   12646   12650   12651   12652   12653
   12654   12656   12657   12658   12660   12661   12662   12650   12652   12653
   12654   12657   12659   12660   12648   12649   12655   12655   12655   12651
   12652   12656   12657   12658   12656   12653   12656   12657   12658   12659
   12660   12661   12662   12663   12664   12665   12654   12657   12658   12659
   12660   12663   12664   12657   12659       0       0   12658   12659   12660
   12661   12662   12663   12664   12666   12667   12668   12660   12661   12662
   12663   12665   12666   12660   12661   12663   12664   12665   12666   12667
   12668   12669   12670   12671   12662   12663   12664   12665   12666   12669
   12670   12663   12665   12664   12665   12666   12667   12668   12669   12670
   12672   12666   12667   12668   12669   12671   12672   12666   12667   12669
   12670   12671   12672   12668   12669   12670   12671   12672   12669   12671
   12670   12671   12672   12672   12672       0   12674   12675   12676   12677
   12678   12679   12680   12681   12682   12683   12684   12685   12686   12687
   12688   12689   12690   12675   12676   12677   12678   12679   12680   12681
   12682   12683   12684   12691   12676   12677   12678   12679   12680   12681
   12682   12683   12685   12686   12687   12691   12692   12677   12678   12679
   12680   12681   12682   12686   12688   12689   12690   12692   12693   12694
   12695   12678   12679   12683   12684   12685   12691   12683   12684   12680
   12683   12684   12685   12686   12687   12691   12681   12683   12685   12686
   12687   12688   12692   12682   12686   12687   12688   12689   12690   12692
   12693   12694   12696   12697   12698   12686   12688   12689   12690   12693
   12695   12696   12684   12685   12691   12691   12691   12687   12688   12692
   12693   12694   12692   12689   12692   12693   12694   12695   12696   12697
   12698   12699   12700   12701   12690   12693   12694   12695   12696   12699
   12700   12693   12695       0       0   12694   12695   12696   12697   12698
   12699   12700   12702   12703   12704   12696   12697   12698   12699   12701
   12702   12696   12697   12699   12700   12701   12702   12703   12704   12705
   12706   12707   12698   12699   12700   12701   12702   12705   12706   12699
   12701   12700   12701   12702   12703   12704   12705   12706   12708   12702
   12703   12704   12705   12707   12708   12702   12703   12705   12706   12707
   12708   12704   12705   12706   12707   12708   12705   12707   12706   12707
   12708   12708   12708       0   12710   12711   12712   12713   12714   12715
   12716   12717   12718   12719   12720   12721   12722   12723   12724   12725
   12726   12711   12712   12713   12714   12715   12716   12717   12718   12719
   12720   12727   12712   12713   12714   12715   12716   12717   12718   12719
   12721   12722   12723   12727   12728   12713   12714   12715   12716   12717
   12718   12722   12724   12725   12726   12728   12729   12730   12731   12714
   12715   12719   12720   12721   12727   12719   12720   12716   12719   12720
   12721   12722   12723   12727   12717   12719   12721   12722   12723   12724
   12728   12718   12722   12723   12724   12725   12726   12728   12729   12730
   12732   12733   12734   12722   12724   12725   12726   12729   12731   12732
   12720   12721   12727   12727   12727   12723   12724   12728   12729   12730
   12728   12725   12728   12729   12730   12731   12732   12733   12734   12735
   12736   12737   12726   12729   12730   12731   12732   12735   12736   12729
   12731       0       0   12730   12731   12732   12733   12734   12735   12736
   12738   12739   12740   12732   12733   12734   12735   12737   12738   12732
   12733   12735   12736   12737   12738   12739   12740   12741   12742   12743
   12734   12735   12736   12737   12738   12741   12742   12735   12737   12736
   12737   12738   12739   12740   12741   12742   12744   12738   12739   12740
   12741   12743   12744   12738   12739   12741   12742   12743   12744   12740
   12741   12742   12743   12744   12741   12743   12742   12743   12744   12744
   12744       0   12746   12747   12748   12749   12750   12751   12752   12753
   12754   12755   12756   12757   12758   12759   12760   12761   12762   12747
   12748   12749   12750   12751   12752   12753   12754   12755   12756   12763
   12748   12749   12750   12751   12752   12753   12754   12755   12757   12758
   12759   12763   12764   12749   12750   12751   12752   12753   12754   12758
   12760   12761   12762   12764   12765   12766   12767   12750   12751   12755
   12756   12757   12763   12755   12756   12752   12755   12756   12757   12758
   12759   12763   12753   12755   12757   12758   12759   12760   12764   12754
   12758   12759   12760   12761   12762   12764   12765   12766   12768   12769
   12770   12758   12760   12761   12762   12765   12767   12768   12756   12757
   12763   12763   12763   12759   12760   12764   12765   12766   12764   12761
   12764   12765   12766   12767   12768   12769   12770   12771   12772   12773
   12762   12765   12766   12767   12768   12771   12772   12765   12767       0
       0   12766   12767   12768   12769   12770   12771   12772   12774   12775
   12776   12768   12769   12770   12771   12773   12774   12768   12769   12771
   12772   12773   12774   12775   12776   12777   12778   12779   12770   12771
   12772   12773   12774   12777   12778   12771   12773   12772   12773   12774
   12775   12776   12777   12778   12780   12774   12775   12776   12777   12779
   12780   12774   12775   12777   12778   12779   12780   12776   12777   12778
   12779   12780   12777   12779   12778   12779   12780   12780   12780       0
   12782   12783   12784   12785   12786   12787   12788   12789   12790   12791
   12792   12793   12794   12795   12796   12797   12798   12783   12784   12785
   12786   12787   12788   12789   12790   12791   12792   12799   12784   12785
   12786   12787   12788   12789   12790   12791   12793   12794   12795   12799
   12800   12785   12786   12787   12788   12789   12790   12794   12796   12797
   12798   12800   12801   12802   12803   12786   12787   12791   12792   12793
   12799   12791   12792   12788   12791   12792   12793   12794   12795   12799
   12789   12791   12793   12794   12795   12796   12800   12790   12794   12795
   12796   12797   12798   12800   12801   12802   12804   12805   12806   12794
   12796   12797   12798   12801   12803   12804   12792   12793   12799   12799
   12799   12795   12796   12800   12801   12802   12800   12797   12800   12801
   12802   12803   12804   12805   12806   12807   12808   12809   12798   12801
   12802   12803   12804   12807   12808   12801   12803       0       0   12802
   12803   12804   12805   12806   12807   12808   12810   12811   12812   12804
   12805   12806   12807   12809   12810   12804   12805   12807   12808   12809
   12810   12811   12812   12813   12814   12815   12806   12807   12808   12809
   12810   12813   12814   12807   12809   12808   12809   12810   12811   12812
   12813   12814   12816   12810   12811   12812   12813   12815   12816   12810
   12811   12813   12814   12815   12816   12812   12813   12814   12815   12816
   12813   12815   12814   12815   12816   12816   12816       0   12818   12819
   12820   12821   12822   12823   12824   12825   12826   12827   12828   12829
   12830   12831   12832   12833   12834   12819   12820   12821   12822   12823
   12824   12825   12826   12827   12828   12835   12820   12821   12822   12823
   12824   12825   12826   12827   12829   12830   12831   12835   12836   12821
   12822   12823   12824   12825   12826   12830   12832   12833   12834   12836
   12837   12838   12839   12822   12823   12827   12828   12829   12835   12827
   12828   12824   12827   12828   12829   12830   12831   12835   12825   12827
   12829   12830   12831   12832   12836   12826   12830   12831   12832   12833
   12834   12836   12837   12838   12840   12841   12842   12830   12832   12833
   12834   12837   12839   12840   12828   12829   12835   12835   12835   12831
   12832   12836   12837   12838   12836   12833   12836   12837   12838   12839
   12840   12841   12842   12843   12844   12845   12834   12837   12838   12839
   12840   12843   12844   12837   12839       0       0   12838   12839   12840
   12841   12842   12843   12844   12846   12847   12848   12840   12841   12842
   12843   12845   12846   12840   12841   12843   12844   12845   12846   12847
   12848   12849   12850   12851   12842   12843   12844   12845   12846   12849
   12850   12843   12845   12844   12845   12846   12847   12848   12849   12850
   12852   12846   12847   12848   12849   12851   12852   12846   12847   12849
   12850   12851   12852   12848   12849   12850   12851   12852   12849   12851
   12850   12851   12852   12852   12852       0   12854   12855   12856   12857
   12858   12859   12860   12861   12862   12863   12864   12865   12866   12867
   12868   12869   12870   12855   12856   12857   12858   12859   12860   12861
   12862   12863   12864   12871   12856   12857   12858   12859   12860   12861
   12862   12863   12865   12866   12867   12871   12872   12857   12858   12859
   12860   12861   12862   12866   12868   12869   12870   12872   12873   12874
   12875   12858   12859   12863   12864   12865   12871   12863   12864   12860
   12863   12864   12865   12866   12867   12871   12861   12863   12865   12866
   12867   12868   12872   12862   12866   12867   12868   12869   12870   12872
   12873   12874   12876   12877   12878   12866   12868   12869   12870   12873
   12875   12876   12864   12865   12871   12871   12871   12867   12868   12872
   12873   12874   12872   12869   12872   12873   12874   12875   12876   12877
   12878   12879   12880   12881   12870   12873   12874   12875   12876   12879
   12880   12873   12875       0       0   12874   12875   12876   12877   12878
   12879   12880   12882   12883   12884   12876   12877   12878   12879   12881
   12882   12876   12877   12879   12880   12881   12882   12883   12884   12885
   12886   12887   12878   12879   12880   12881   12882   12885   12886   12879
   12881   12880   12881   12882   12883   12884   12885   12886   12888   12882
   12883   12884   12885   12887   12888   12882   12883   12885   12886   12887
   12888   12884   12885   12886   12887   12888   12885   12887   12886   12887
   12888   12888   12888       0   12890   12891   12892   12893   12894   12895
   12896   12897   12898   12899   12900   12901   12902   12903   12904   12905
   12906   12891   12892   12893   12894   12895   12896   12897   12898   12899
   12900   12907   12892   12893   12894   12895   12896   12897   12898   12899
   12901   12902   12903   12907   12908   12893   12894   12895   12896   12897
   12898   12902   12904   12905   12906   12908   12909   12910   12911   12894
   12895   12899   12900   12901   12907   12899   12900   12896   12899   12900
   12901   12902   12903   12907   12897   12899   12901   12902   12903   12904
   12908   12898   12902   12903   12904   12905   12906   12908   12909   12910
   12912   12913   12914   12902   12904   12905   12906   12909   12911   12912
   12900   12901   12907   12907   12907   12903   12904   12908   12909   12910
   12908   12905   12908   12909   12910   12911   12912   12913   12914   12915
   12916   12917   12906   12909   12910   12911   12912   12915   12916   12909
   12911       0       0   12910   12911   12912   12913   12914   12915   12916
   12918   12919   12920   12912   12913   12914   12915   12917   12918   12912
   12913   12915   12916   12917   12918   12919   12920   12921   12922   12923
   12914   12915   12916   12917   12918   12921   12922   12915   12917   12916
   12917   12918   12919   12920   12921   12922   12924   12918   12919   12920
   12921   12923   12924   12918   12919   12921   12922   12923   12924   12920
   12921   12922   12923   12924   12921   12923   12922   12923   12924   12924
   12924       0   12926   12927   12928   12929   12930   12931   12932   12933
   12934   12935   12936   12937   12938   12939   12940   12941   12942   12927
   12928   12929   12930   12931   12932   12933   12934   12935   12936   12943
   12928   12929   12930   12931   12932   12933   12934   12935   12937   12938
   12939   12943   12944   12929   12930   12931   12932   12933   12934   12938
   12940   12941   12942   12944   12945   12946   12947   12930   12931   12935
   12936   12937   12943   12935   12936   12932   12935   12936   12937   12938
   12939   12943   12933   12935   12937   12938   12939   12940   12944   12934
   12938   12939   12940   12941   12942   12944   12945   12946   12948   12949
   12950   12938   12940   12941   12942   12945   12947   12948   12936   12937
   12943   12943   12943   12939   12940   12944   12945   12946   12944   12941
   12944   12945   12946   12947   12948   12949   12950   12951   12952   12953
   12942   12945   12946   12947   12948   12951   12952   12945   12947       0
       0   12946   12947   12948   12949   12950   12951   12952   12954   12955
   12956   12948   12949   12950   12951   12953   12954   12948   12949   12951
   12952   12953   12954   12955   12956   12957   12958   12959   12950   12951
   12952   12953   12954   12957   12958   12951   12953   12952   12953   12954
   12955   12956   12957   12958   12960   12954   12955   12956   12957   12959
   12960   12954   12955   12957   12958   12959   12960   12956   12957   12958
   12959   12960   12957   12959   12958   12959   12960   12960   12960       0
   12962   12963   12964   12965   12966   12967   12968   12969   12970   12971
   12972   12973   12974   12975   12976   12977   12978   12963   12964   12965
   12966   12967   12968   12969   12970   12971   12972   12979   12964   12965
   12966   12967   12968   12969   12970   12971   12973   12974   12975   12979
   12980   12965   12966   12967   12968   12969   12970   12974   12976   12977
   12978   12980   12981   12982   12983   12966   12967   12971   12972   12973
   12979   12971   12972   12968   12971   12972   12973   12974   12975   12979
   12969   12971   12973   12974   12975   12976   12980   12970   12974   12975
   12976   12977   12978   12980   12981   12982   12984   12985   12986   12974
   12976   12977   12978   12981   12983   12984   12972   12973   12979   12979
   12979   12975   12976   12980   12981   12982   12980   12977   12980   12981
   12982   12983   12984   12985   12986   12987   12988   12989   12978   12981
   12982   12983   12984   12987   12988   12981   12983       0       0   12982
   12983   12984   12985   12986   12987   12988   12990   12991   12992   12984
   12985   12986   12987   12989   12990   12984   12985   12987   12988   12989
   12990   12991   12992   12993   12994   12995   12986   12987   12988   12989
   12990   12993   12994   12987   12989   12988   12989   12990   12991   12992
   12993   12994   12996   12990   12991   12992   12993   12995   12996   12990
   12991   12993   12994   12995   12996   12992   12993   12994   12995   12996
   12993   12995   12994   12995   12996   12996   12996       0   12998   12999
   13000   13001   13002   13003   13004   13005   13006   13007   13008   13009
   13010   13011   13012   13013   13014   12999   13000   13001   13002   13003
   13004   13005   13006   13007   13008   13015   13000   13001   13002   13003
   13004   13005   13006   13007   13009   13010   13011   13015   13016   13001
   13002   13003   13004   13005   13006   13010   13012   13013   13014   13016
   13017   13018   13019   13002   13003   13007   13008   13009   13015   13007
   13008   13004   13007   13008   13009   13010   13011   13015   13005   13007
   13009   13010   13011   13012   13016   13006   13010   13011   13012   13013
   13014   13016   13017   13018   13020   13021   13022   13010   13012   13013
   13014   13017   13019   13020   13008   13009   13015   13015   13015   13011
   13012   13016   13017   13018   13016   13013   13016   13017   13018   13019
   13020   13021   13022   13023   13024   13025   13014   13017   13018   13019
   13020   13023   13024   13017   13019       0       0   13018   13019   13020
   13021   13022   13023   13024   13026   13027   13028   13020   13021   13022
   13023   13025   13026   13020   13021   13023   13024   13025   13026   13027
   13028   13029   13030   13031   13022   13023   13024   13025   13026   13029
   13030   13023   13025   13024   13025   13026   13027   13028   13029   13030
   13032   13026   13027   13028   13029   13031   13032   13026   13027   13029
   13030   13031   13032   13028   13029   13030   13031   13032   13029   13031
   13030   13031   13032   13032   13032       0   13034   13035   13036   13037
   13038   13039   13040   13041   13042   13043   13044   13045   13046   13047
   13048   13049   13050   13035   13036   13037   13038   13039   13040   13041
   13042   13043   13044   13051   13036   13037   13038   13039   13040   13041
   13042   13043   13045   13046   13047   13051   13052   13037   13038   13039
   13040   13041   13042   13046   13048   13049   13050   13052   13053   13054
   13055   13038   13039   13043   13044   13045   13051   13043   13044   13040
   13043   13044   13045   13046   13047   13051   13041   13043   13045   13046
   13047   13048   13052   13042   13046   13047   13048   13049   13050   13052
   13053   13054   13056   13057   13058   13046   13048   13049   13050   13053
   13055   13056   13044   13045   13051   13051   13051   13047   13048   13052
   13053   13054   13052   13049   13052   13053   13054   13055   13056   13057
   13058   13059   13060   13061   13050   13053   13054   13055   13056   13059
   13060   13053   13055       0       0   13054   13055   13056   13057   13058
   13059   13060   13062   13063   13064   13056   13057   13058   13059   13061
   13062   13056   13057   13059   13060   13061   13062   13063   13064   13065
   13066   13067   13058   13059   13060   13061   13062   13065   13066   13059
   13061   13060   13061   13062   13063   13064   13065   13066   13068   13062
   13063   13064   13065   13067   13068   13062   13063   13065   13066   13067
   13068   13064   13065   13066   13067   13068   13065   13067   13066   13067
   13068   13068   13068       0   13070   13071   13072   13073   13074   13075
   13076   13077   13078   13079   13080   13081   13082   13083   13084   13085
   13086   13071   13072   13073   13074   13075   13076   13077   13078   13079
   13080   13087   13072   13073   13074   13075   13076   13077   13078   13079
   13081   13082   13083   13087   13088   13073   13074   13075   13076   13077
   13078   13082   13084   13085   13086   13088   13089   13090   13091   13074
   13075   13079   13080   13081   13087   13079   13080   13076   13079   13080
   13081   13082   13083   13087   13077   13079   13081   13082   13083   13084
   13088   13078   13082   13083   13084   13085   13086   13088   13089   13090
   13092   13093   13094   13082   13084   13085   13086   13089   13091   13092
   13080   13081   13087   13087   13087   13083   13084   13088   13089   13090
   13088   13085   13088   13089   13090   13091   13092   13093   13094   13095
   13096   13097   13086   13089   13090   13091   13092   13095   13096   13089
   13091       0       0   13090   13091   13092   13093   13094   13095   13096
   13098   13099   13100   13092   13093   13094   13095   13097   13098   13092
   13093   13095   13096   13097   13098   13099   13100   13101   13102   13103
   13094   13095   13096   13097   13098   13101   13102   13095   13097   13096
   13097   13098   13099   13100   13101   13102   13104   13098   13099   13100
   13101   13103   13104   13098   13099   13101   13102   13103   13104   13100
   13101   13102   13103   13104   13101   13103   13102   13103   13104   13104
   13104       0   13106   13107   13108   13109   13110   13111   13112   13113
   13114   13115   13116   13117   13118   13119   13120   13121   13122   13107
   13108   13109   13110   13111   13112   13113   13114   13115   13116   13123
   13108   13109   13110   13111   13112   13113   13114   13115   13117   13118
   13119   13123   13124   13109   13110   13111   13112   13113   13114   13118
   13120   13121   13122   13124   13125   13126   13127   13110   13111   13115
   13116   13117   13123   13115   13116   13112   13115   13116   13117   13118
   13119   13123   13113   13115   13117   13118   13119   13120   13124   13114
   13118   13119   13120   13121   13122   13124   13125   13126   13128   13129
   13130   13118   13120   13121   13122   13125   13127   13128   13116   13117
   13123   13123   13123   13119   13120   13124   13125   13126   13124   13121
   13124   13125   13126   13127   13128   13129   13130   13131   13132   13133
   13122   13125   13126   13127   13128   13131   13132   13125   13127       0
       0   13126   13127   13128   13129   13130   13131   13132   13134   13135
   13136   13128   13129   13130   13131   13133   13134   13128   13129   13131
   13132   13133   13134   13135   13136   13137   13138   13139   13130   13131
   13132   13133   13134   13137   13138   13131   13133   13132   13133   13134
   13135   13136   13137   13138   13140   13134   13135   13136   13137   13139
   13140   13134   13135   13137   13138   13139   13140   13136   13137   13138
   13139   13140   13137   13139   13138   13139   13140   13140   13140       0
   13142   13143   13144   13145   13146   13147   13148   13149   13150   13151
   13152   13153   13154   13155   13156   13157   13158   13143   13144   13145
   13146   13147   13148   13149   13150   13151   13152   13159   13144   13145
   13146   13147   13148   13149   13150   13151   13153   13154   13155   13159
   13160   13145   13146   13147   13148   13149   13150   13154   13156   13157
   13158   13160   13161   13162   13163   13146   13147   13151   13152   13153
   13159   13151   13152   13148   13151   13152   13153   13154   13155   13159
   13149   13151   13153   13154   13155   13156   13160   13150   13154   13155
   13156   13157   13158   13160   13161   13162   13164   13165   13166   13154
   13156   13157   13158   13161   13163   13164   13152   13153   13159   13159
   13159   13155   13156   13160   13161   13162   13160   13157   13160   13161
   13162   13163   13164   13165   13166   13167   13168   13169   13158   13161
   13162   13163   13164   13167   13168   13161   13163       0       0   13162
   13163   13164   13165   13166   13167   13168   13170   13171   13172   13164
   13165   13166   13167   13169   13170   13164   13165   13167   13168   13169
   13170   13171   13172   13173   13174   13175   13166   13167   13168   13169
   13170   13173   13174   13167   13169   13168   13169   13170   13171   13172
   13173   13174   13176   13170   13171   13172   13173   13175   13176   13170
   13171   13173   13174   13175   13176   13172   13173   13174   13175   13176
   13173   13175   13174   13175   13176   13176   13176       0   13178   13179
   13180   13181   13182   13183   13184   13185   13186   13187   13188   13189
   13190   13191   13192   13193   13194   13179   13180   13181   13182   13183
   13184   13185   13186   13187   13188   13195   13180   13181   13182   13183
   13184   13185   13186   13187   13189   13190   13191   13195   13196   13181
   13182   13183   13184   13185   13186   13190   13192   13193   13194   13196
   13197   13198   13199   13182   13183   13187   13188   13189   13195   13187
   13188   13184   13187   13188   13189   13190   13191   13195   13185   13187
   13189   13190   13191   13192   13196   13186   13190   13191   13192   13193
   13194   13196   13197   13198   13200   13201   13202   13190   13192   13193
   13194   13197   13199   13200   13188   13189   13195   13195   13195   13191
   13192   13196   13197   13198   13196   13193   13196   13197   13198   13199
   13200   13201   13202   13203   13204   13205   13194   13197   13198   13199
   13200   13203   13204   13197   13199       0       0   13198   13199   13200
   13201   13202   13203   13204   13206   13207   13208   13200   13201   13202
   13203   13205   13206   13200   13201   13203   13204   13205   13206   13207
   13208   13209   13210   13211   13202   13203   13204   13205   13206   13209
   13210   13203   13205   13204   13205   13206   13207   13208   13209   13210
   13212   13206   13207   13208   13209   13211   13212   13206   13207   13209
   13210   13211   13212   13208   13209   13210   13211   13212   13209   13211
   13210   13211   13212   13212   13212       0   13214   13215   13216   13217
   13218   13219   13220   13221   13222   13223   13224   13225   13226   13227
   13228   13229   13230   13215   13216   13217   13218   13219   13220   13221
   13222   13223   13224   13231   13216   13217   13218   13219   13220   13221
   13222   13223   13225   13226   13227   13231   13232   13217   13218   13219
   13220   13221   13222   13226   13228   13229   13230   13232   13233   13234
   13235   13218   13219   13223   13224   13225   13231   13223   13224   13220
   13223   13224   13225   13226   13227   13231   13221   13223   13225   13226
   13227   13228   13232   13222   13226   13227   13228   13229   13230   13232
   13233   13234   13236   13237   13238   13226   13228   13229   13230   13233
   13235   13236   13224   13225   13231   13231   13231   13227   13228   13232
   13233   13234   13232   13229   13232   13233   13234   13235   13236   13237
   13238   13239   13240   13241   13230   13233   13234   13235   13236   13239
   13240   13233   13235       0       0   13234   13235   13236   13237   13238
   13239   13240   13242   13243   13244   13236   13237   13238   13239   13241
   13242   13236   13237   13239   13240   13241   13242   13243   13244   13245
   13246   13247   13238   13239   13240   13241   13242   13245   13246   13239
   13241   13240   13241   13242   13243   13244   13245   13246   13248   13242
   13243   13244   13245   13247   13248   13242   13243   13245   13246   13247
   13248   13244   13245   13246   13247   13248   13245   13247   13246   13247
   13248   13248   13248       0   13250   13251   13252   13253   13254   13255
   13256   13257   13258   13259   13260   13261   13262   13263   13264   13265
   13266   13251   13252   13253   13254   13255   13256   13257   13258   13259
   13260   13267   13252   13253   13254   13255   13256   13257   13258   13259
   13261   13262   13263   13267   13268   13253   13254   13255   13256   13257
   13258   13262   13264   13265   13266   13268   13269   13270   13271   13254
   13255   13259   13260   13261   13267   13259   13260   13256   13259   13260
   13261   13262   13263   13267   13257   13259   13261   13262   13263   13264
   13268   13258   13262   13263   13264   13265   13266   13268   13269   13270
   13272   13273   13274   13262   13264   13265   13266   13269   13271   13272
   13260   13261   13267   13267   13267   13263   13264   13268   13269   13270
   13268   13265   13268   13269   13270   13271   13272   13273   13274   13275
   13276   13277   13266   13269   13270   13271   13272   13275   13276   13269
   13271       0       0   13270   13271   13272   13273   13274   13275   13276
   13278   13279   13280   13272   13273   13274   13275   13277   13278   13272
   13273   13275   13276   13277   13278   13279   13280   13281   13282   13283
   13274   13275   13276   13277   13278   13281   13282   13275   13277   13276
   13277   13278   13279   13280   13281   13282   13284   13278   13279   13280
   13281   13283   13284   13278   13279   13281   13282   13283   13284   13280
   13281   13282   13283   13284   13281   13283   13282   13283   13284   13284
   13284       0   13286   13287   13288   13289   13290   13291   13292   13293
   13294   13295   13296   13297   13298   13299   13300   13301   13302   13287
   13288   13289   13290   13291   13292   13293   13294   13295   13296   13303
   13288   13289   13290   13291   13292   13293   13294   13295   13297   13298
   13299   13303   13304   13289   13290   13291   13292   13293   13294   13298
   13300   13301   13302   13304   13305   13306   13307   13290   13291   13295
   13296   13297   13303   13295   13296   13292   13295   13296   13297   13298
   13299   13303   13293   13295   13297   13298   13299   13300   13304   13294
   13298   13299   13300   13301   13302   13304   13305   13306   13308   13309
   13310   13298   13300   13301   13302   13305   13307   13308   13296   13297
   13303   13303   13303   13299   13300   13304   13305   13306   13304   13301
   13304   13305   13306   13307   13308   13309   13310   13311   13312   13313
   13302   13305   13306   13307   13308   13311   13312   13305   13307       0
       0   13306   13307   13308   13309   13310   13311   13312   13314   13315
   13316   13308   13309   13310   13311   13313   13314   13308   13309   13311
   13312   13313   13314   13315   13316   13317   13318   13319   13310   13311
   13312   13313   13314   13317   13318   13311   13313   13312   13313   13314
   13315   13316   13317   13318   13320   13314   13315   13316   13317   13319
   13320   13314   13315   13317   13318   13319   13320   13316   13317   13318
   13319   13320   13317   13319   13318   13319   13320   13320   13320       0
   13322   13323   13324   13325   13326   13327   13328   13329   13330   13331
   13332   13333   13334   13335   13336   13337   13338   13323   13324   13325
   13326   13327   13328   13329   13330   13331   13332   13339   13324   13325
   13326   13327   13328   13329   13330   13331   13333   13334   13335   13339
   13340   13325   13326   13327   13328   13329   13330   13334   13336   13337
   13338   13340   13341   13342   13343   13326   13327   13331   13332   13333
   13339   13331   13332   13328   13331   13332   13333   13334   13335   13339
   13329   13331   13333   13334   13335   13336   13340   13330   13334   13335
   13336   13337   13338   13340   13341   13342   13344   13345   13346   13334
   13336   13337   13338   13341   13343   13344   13332   13333   13339   13339
   13339   13335   13336   13340   13341   13342   13340   13337   13340   13341
   13342   13343   13344   13345   13346   13347   13348   13349   13338   13341
   13342   13343   13344   13347   13348   13341   13343       0       0   13342
   13343   13344   13345   13346   13347   13348   13350   13351   13352   13344
   13345   13346   13347   13349   13350   13344   13345   13347   13348   13349
   13350   13351   13352   13353   13354   13355   13346   13347   13348   13349
   13350   13353   13354   13347   13349   13348   13349   13350   13351   13352
   13353   13354   13356   13350   13351   13352   13353   13355   13356   13350
   13351   13353   13354   13355   13356   13352   13353   13354   13355   13356
   13353   13355   13354   13355   13356   13356   13356       0   13358   13359
   13360   13361   13362   13363   13364   13365   13366   13367   13368   13369
   13370   13371   13372   13373   13374   13359   13360   13361   13362   13363
   13364   13365   13366   13367   13368   13375   13360   13361   13362   13363
   13364   13365   13366   13367   13369   13370   13371   13375   13376   13361
   13362   13363   13364   13365   13366   13370   13372   13373   13374   13376
   13377   13378   13379   13362   13363   13367   13368   13369   13375   13367
   13368   13364   13367   13368   13369   13370   13371   13375   13365   13367
   13369   13370   13371   13372   13376   13366   13370   13371   13372   13373
   13374   13376   13377   13378   13380   13381   13382   13370   13372   13373
   13374   13377   13379   13380   13368   13369   13375   13375   13375   13371
   13372   13376   13377   13378   13376   13373   13376   13377   13378   13379
   13380   13381   13382   13383   13384   13385   13374   13377   13378   13379
   13380   13383   13384   13377   13379       0       0   13378   13379   13380
   13381   13382   13383   13384   13386   13387   13388   13380   13381   13382
   13383   13385   13386   13380   13381   13383   13384   13385   13386   13387
   13388   13389   13390   13391   13382   13383   13384   13385   13386   13389
   13390   13383   13385   13384   13385   13386   13387   13388   13389   13390
   13392   13386   13387   13388   13389   13391   13392   13386   13387   13389
   13390   13391   13392   13388   13389   13390   13391   13392   13389   13391
   13390   13391   13392   13392   13392       0   13394   13395   13396   13397
   13398   13399   13400   13401   13402   13403   13404   13405   13406   13407
   13408   13409   13410   13395   13396   13397   13398   13399   13400   13401
   13402   13403   13404   13411   13396   13397   13398   13399   13400   13401
   13402   13403   13405   13406   13407   13411   13412   13397   13398   13399
   13400   13401   13402   13406   13408   13409   13410   13412   13413   13414
   13415   13398   13399   13403   13404   13405   13411   13403   13404   13400
   13403   13404   13405   13406   13407   13411   13401   13403   13405   13406
   13407   13408   13412   13402   13406   13407   13408   13409   13410   13412
   13413   13414   13416   13417   13418   13406   13408   13409   13410   13413
   13415   13416   13404   13405   13411   13411   13411   13407   13408   13412
   13413   13414   13412   13409   13412   13413   13414   13415   13416   13417
   13418   13419   13420   13421   13410   13413   13414   13415   13416   13419
   13420   13413   13415       0       0   13414   13415   13416   13417   13418
   13419   13420   13422   13423   13424   13416   13417   13418   13419   13421
   13422   13416   13417   13419   13420   13421   13422   13423   13424   13425
   13426   13427   13418   13419   13420   13421   13422   13425   13426   13419
   13421   13420   13421   13422   13423   13424   13425   13426   13428   13422
   13423   13424   13425   13427   13428   13422   13423   13425   13426   13427
   13428   13424   13425   13426   13427   13428   13425   13427   13426   13427
   13428   13428   13428       0   13430   13431   13432   13433   13434   13435
   13436   13437   13438   13439   13440   13441   13442   13443   13444   13445
   13446   13431   13432   13433   13434   13435   13436   13437   13438   13439
   13440   13447   13432   13433   13434   13435   13436   13437   13438   13439
   13441   13442   13443   13447   13448   13433   13434   13435   13436   13437
   13438   13442   13444   13445   13446   13448   13449   13450   13451   13434
   13435   13439   13440   13441   13447   13439   13440   13436   13439   13440
   13441   13442   13443   13447   13437   13439   13441   13442   13443   13444
   13448   13438   13442   13443   13444   13445   13446   13448   13449   13450
   13452   13453   13454   13442   13444   13445   13446   13449   13451   13452
   13440   13441   13447   13447   13447   13443   13444   13448   13449   13450
   13448   13445   13448   13449   13450   13451   13452   13453   13454   13455
   13456   13457   13446   13449   13450   13451   13452   13455   13456   13449
   13451       0       0   13450   13451   13452   13453   13454   13455   13456
   13458   13459   13460   13452   13453   13454   13455   13457   13458   13452
   13453   13455   13456   13457   13458   13459   13460   13461   13462   13463
   13454   13455   13456   13457   13458   13461   13462   13455   13457   13456
   13457   13458   13459   13460   13461   13462   13464   13458   13459   13460
   13461   13463   13464   13458   13459   13461   13462   13463   13464   13460
   13461   13462   13463   13464   13461   13463   13462   13463   13464   13464
   13464       0   13466   13467   13468   13469   13470   13471   13472   13473
   13474   13475   13476   13477   13478   13479   13480   13481   13482   13467
   13468   13469   13470   13471   13472   13473   13474   13475   13476   13483
   13468   13469   13470   13471   13472   13473   13474   13475   13477   13478
   13479   13483   13484   13469   13470   13471   13472   13473   13474   13478
   13480   13481   13482   13484   13485   13486   13487   13470   13471   13475
   13476   13477   13483   13475   13476   13472   13475   13476   13477   13478
   13479   13483   13473   13475   13477   13478   13479   13480   13484   13474
   13478   13479   13480   13481   13482   13484   13485   13486   13488   13489
   13490   13478   13480   13481   13482   13485   13487   13488   13476   13477
   13483   13483   13483   13479   13480   13484   13485   13486   13484   13481
   13484   13485   13486   13487   13488   13489   13490   13491   13492   13493
   13482   13485   13486   13487   13488   13491   13492   13485   13487       0
       0   13486   13487   13488   13489   13490   13491   13492   13494   13495
   13496   13488   13489   13490   13491   13493   13494   13488   13489   13491
   13492   13493   13494   13495   13496   13497   13498   13499   13490   13491
   13492   13493   13494   13497   13498   13491   13493   13492   13493   13494
   13495   13496   13497   13498   13500   13494   13495   13496   13497   13499
   13500   13494   13495   13497   13498   13499   13500   13496   13497   13498
   13499   13500   13497   13499   13498   13499   13500   13500   13500       0
   13502   13503   13504   13505   13506   13507   13508   13509   13510   13511
   13512   13513   13514   13515   13516   13517   13518   13503   13504   13505
   13506   13507   13508   13509   13510   13511   13512   13519   13504   13505
   13506   13507   13508   13509   13510   13511   13513   13514   13515   13519
   13520   13505   13506   13507   13508   13509   13510   13514   13516   13517
   13518   13520   13521   13522   13523   13506   13507   13511   13512   13513
   13519   13511   13512   13508   13511   13512   13513   13514   13515   13519
   13509   13511   13513   13514   13515   13516   13520   13510   13514   13515
   13516   13517   13518   13520   13521   13522   13524   13525   13526   13514
   13516   13517   13518   13521   13523   13524   13512   13513   13519   13519
   13519   13515   13516   13520   13521   13522   13520   13517   13520   13521
   13522   13523   13524   13525   13526   13527   13528   13529   13518   13521
   13522   13523   13524   13527   13528   13521   13523       0       0   13522
   13523   13524   13525   13526   13527   13528   13530   13531   13532   13524
   13525   13526   13527   13529   13530   13524   13525   13527   13528   13529
   13530   13531   13532   13533   13534   13535   13526   13527   13528   13529
   13530   13533   13534   13527   13529   13528   13529   13530   13531   13532
   13533   13534   13536   13530   13531   13532   13533   13535   13536   13530
   13531   13533   13534   13535   13536   13532   13533   13534   13535   13536
   13533   13535   13534   13535   13536   13536   13536       0   13538   13539
   13540   13541   13542   13543   13544   13545   13546   13547   13548   13549
   13550   13551   13552   13553   13554   13539   13540   13541   13542   13543
   13544   13545   13546   13547   13548   13555   13540   13541   13542   13543
   13544   13545   13546   13547   13549   13550   13551   13555   13556   13541
   13542   13543   13544   13545   13546   13550   13552   13553   13554   13556
   13557   13558   13559   13542   13543   13547   13548   13549   13555   13547
   13548   13544   13547   13548   13549   13550   13551   13555   13545   13547
   13549   13550   13551   13552   13556   13546   13550   13551   13552   13553
   13554   13556   13557   13558   13560   13561   13562   13550   13552   13553
   13554   13557   13559   13560   13548   13549   13555   13555   13555   13551
   13552   13556   13557   13558   13556   13553   13556   13557   13558   13559
   13560   13561   13562   13563   13564   13565   13554   13557   13558   13559
   13560   13563   13564   13557   13559       0       0   13558   13559   13560
   13561   13562   13563   13564   13566   13567   13568   13560   13561   13562
   13563   13565   13566   13560   13561   13563   13564   13565   13566   13567
   13568   13569   13570   13571   13562   13563   13564   13565   13566   13569
   13570   13563   13565   13564   13565   13566   13567   13568   13569   13570
   13572   13566   13567   13568   13569   13571   13572   13566   13567   13569
   13570   13571   13572   13568   13569   13570   13571   13572   13569   13571
   13570   13571   13572   13572   13572       0   13574   13575   13576   13577
   13578   13579   13580   13581   13582   13583   13584   13585   13586   13587
   13588   13589   13590   13575   13576   13577   13578   13579   13580   13581
   13582   13583   13584   13591   13576   13577   13578   13579   13580   13581
   13582   13583   13585   13586   13587   13591   13592   13577   13578   13579
   13580   13581   13582   13586   13588   13589   13590   13592   13593   13594
   13595   13578   13579   13583   13584   13585   13591   13583   13584   13580
   13583   13584   13585   13586   13587   13591   13581   13583   13585   13586
   13587   13588   13592   13582   13586   13587   13588   13589   13590   13592
   13593   13594   13596   13597   13598   13586   13588   13589   13590   13593
   13595   13596   13584   13585   13591   13591   13591   13587   13588   13592
   13593   13594   13592   13589   13592   13593   13594   13595   13596   13597
   13598   13599   13600   13601   13590   13593   13594   13595   13596   13599
   13600   13593   13595       0       0   13594   13595   13596   13597   13598
   13599   13600   13602   13603   13604   13596   13597   13598   13599   13601
   13602   13596   13597   13599   13600   13601   13602   13603   13604   13605
   13606   13607   13598   13599   13600   13601   13602   13605   13606   13599
   13601   13600   13601   13602   13603   13604   13605   13606   13608   13602
   13603   13604   13605   13607   13608   13602   13603   13605   13606   13607
   13608   13604   13605   13606   13607   13608   13605   13607   13606   13607
   13608   13608   13608       0   13610   13611   13612   13613   13614   13615
   13616   13617   13618   13619   13620   13621   13622   13623   13624   13625
   13626   13611   13612   13613   13614   13615   13616   13617   13618   13619
   13620   13627   13612   13613   13614   13615   13616   13617   13618   13619
   13621   13622   13623   13627   13628   13613   13614   13615   13616   13617
   13618   13622   13624   13625   13626   13628   13629   13630   13631   13614
   13615   13619   13620   13621   13627   13619   13620   13616   13619   13620
   13621   13622   13623   13627   13617   13619   13621   13622   13623   13624
   13628   13618   13622   13623   13624   13625   13626   13628   13629   13630
   13632   13633   13634   13622   13624   13625   13626   13629   13631   13632
   13620   13621   13627   13627   13627   13623   13624   13628   13629   13630
   13628   13625   13628   13629   13630   13631   13632   13633   13634   13635
   13636   13637   13626   13629   13630   13631   13632   13635   13636   13629
   13631       0       0   13630   13631   13632   13633   13634   13635   13636
   13638   13639   13640   13632   13633   13634   13635   13637   13638   13632
   13633   13635   13636   13637   13638   13639   13640   13641   13642   13643
   13634   13635   13636   13637   13638   13641   13642   13635   13637   13636
   13637   13638   13639   13640   13641   13642   13644   13638   13639   13640
   13641   13643   13644   13638   13639   13641   13642   13643   13644   13640
   13641   13642   13643   13644   13641   13643   13642   13643   13644   13644
   13644       0   13646   13647   13648   13649   13650   13651   13652   13653
   13654   13655   13656   13657   13658   13659   13660   13661   13662   13647
   13648   13649   13650   13651   13652   13653   13654   13655   13656   13663
   13648   13649   13650   13651   13652   13653   13654   13655   13657   13658
   13659   13663   13664   13649   13650   13651   13652   13653   13654   13658
   13660   13661   13662   13664   13665   13666   13667   13650   13651   13655
   13656   13657   13663   13655   13656   13652   13655   13656   13657   13658
   13659   13663   13653   13655   13657   13658   13659   13660   13664   13654
   13658   13659   13660   13661   13662   13664   13665   13666   13668   13669
   13670   13658   13660   13661   13662   13665   13667   13668   13656   13657
   13663   13663   13663   13659   13660   13664   13665   13666   13664   13661
   13664   13665   13666   13667   13668   13669   13670   13671   13672   13673
   13662   13665   13666   13667   13668   13671   13672   13665   13667       0
       0   13666   13667   13668   13669   13670   13671   13672   13674   13675
   13676   13668   13669   13670   13671   13673   13674   13668   13669   13671
   13672   13673   13674   13675   13676   13677   13678   13679   13670   13671
   13672   13673   13674   13677   13678   13671   13673   13672   13673   13674
   13675   13676   13677   13678   13680   13674   13675   13676   13677   13679
   13680   13674   13675   13677   13678   13679   13680   13676   13677   13678
   13679   13680   13677   13679   13678   13679   13680   13680   13680       0
   13682   13683   13684   13685   13686   13687   13688   13689   13690   13691
   13692   13693   13694   13695   13696   13697   13698   13683   13684   13685
   13686   13687   13688   13689   13690   13691   13692   13699   13684   13685
   13686   13687   13688   13689   13690   13691   13693   13694   13695   13699
   13700   13685   13686   13687   13688   13689   13690   13694   13696   13697
   13698   13700   13701   13702   13703   13686   13687   13691   13692   13693
   13699   13691   13692   13688   13691   13692   13693   13694   13695   13699
   13689   13691   13693   13694   13695   13696   13700   13690   13694   13695
   13696   13697   13698   13700   13701   13702   13704   13705   13706   13694
   13696   13697   13698   13701   13703   13704   13692   13693   13699   13699
   13699   13695   13696   13700   13701   13702   13700   13697   13700   13701
   13702   13703   13704   13705   13706   13707   13708   13709   13698   13701
   13702   13703   13704   13707   13708   13701   13703       0       0   13702
   13703   13704   13705   13706   13707   13708   13710   13711   13712   13704
   13705   13706   13707   13709   13710   13704   13705   13707   13708   13709
   13710   13711   13712   13713   13714   13715   13706   13707   13708   13709
   13710   13713   13714   13707   13709   13708   13709   13710   13711   13712
   13713   13714   13716   13710   13711   13712   13713   13715   13716   13710
   13711   13713   13714   13715   13716   13712   13713   13714   13715   13716
   13713   13715   13714   13715   13716   13716   13716       0   13718   13719
   13720   13721   13722   13723   13724   13725   13726   13727   13728   13729
   13730   13731   13732   13733   13734   13719   13720   13721   13722   13723
   13724   13725   13726   13727   13728   13735   13720   13721   13722   13723
   13724   13725   13726   13727   13729   13730   13731   13735   13736   13721
   13722   13723   13724   13725   13726   13730   13732   13733   13734   13736
   13737   13738   13739   13722   13723   13727   13728   13729   13735   13727
   13728   13724   13727   13728   13729   13730   13731   13735   13725   13727
   13729   13730   13731   13732   13736   13726   13730   13731   13732   13733
   13734   13736   13737   13738   13740   13741   13742   13730   13732   13733
   13734   13737   13739   13740   13728   13729   13735   13735   13735   13731
   13732   13736   13737   13738   13736   13733   13736   13737   13738   13739
   13740   13741   13742   13743   13744   13745   13734   13737   13738   13739
   13740   13743   13744   13737   13739       0       0   13738   13739   13740
   13741   13742   13743   13744   13746   13747   13748   13740   13741   13742
   13743   13745   13746   13740   13741   13743   13744   13745   13746   13747
   13748   13749   13750   13751   13742   13743   13744   13745   13746   13749
   13750   13743   13745   13744   13745   13746   13747   13748   13749   13750
   13752   13746   13747   13748   13749   13751   13752   13746   13747   13749
   13750   13751   13752   13748   13749   13750   13751   13752   13749   13751
   13750   13751   13752   13752   13752       0   13754   13755   13756   13757
   13758   13759   13760   13761   13762   13763   13764   13765   13766   13767
   13768   13769   13770   13755   13756   13757   13758   13759   13760   13761
   13762   13763   13764   13771   13756   13757   13758   13759   13760   13761
   13762   13763   13765   13766   13767   13771   13772   13757   13758   13759
   13760   13761   13762   13766   13768   13769   13770   13772   13773   13774
   13775   13758   13759   13763   13764   13765   13771   13763   13764   13760
   13763   13764   13765   13766   13767   13771   13761   13763   13765   13766
   13767   13768   13772   13762   13766   13767   13768   13769   13770   13772
   13773   13774   13776   13777   13778   13766   13768   13769   13770   13773
   13775   13776   13764   13765   13771   13771   13771   13767   13768   13772
   13773   13774   13772   13769   13772   13773   13774   13775   13776   13777
   13778   13779   13780   13781   13770   13773   13774   13775   13776   13779
   13780   13773   13775       0       0   13774   13775   13776   13777   13778
   13779   13780   13782   13783   13784   13776   13777   13778   13779   13781
   13782   13776   13777   13779   13780   13781   13782   13783   13784   13785
   13786   13787   13778   13779   13780   13781   13782   13785   13786   13779
   13781   13780   13781   13782   13783   13784   13785   13786   13788   13782
   13783   13784   13785   13787   13788   13782   13783   13785   13786   13787
   13788   13784   13785   13786   13787   13788   13785   13787   13786   13787
   13788   13788   13788       0   13790   13791   13792   13793   13794   13795
   13796   13797   13798   13799   13800   13801   13802   13803   13804   13805
   13806   13791   13792   13793   13794   13795   13796   13797   13798   13799
   13800   13807   13792   13793   13794   13795   13796   13797   13798   13799
   13801   13802   13803   13807   13808   13793   13794   13795   13796   13797
   13798   13802   13804   13805   13806   13808   13809   13810   13811   13794
   13795   13799   13800   13801   13807   13799   13800   13796   13799   13800
   13801   13802   13803   13807   13797   13799   13801   13802   13803   13804
   13808   13798   13802   13803   13804   13805   13806   13808   13809   13810
   13812   13813   13814   13802   13804   13805   13806   13809   13811   13812
   13800   13801   13807   13807   13807   13803   13804   13808   13809   13810
   13808   13805   13808   13809   13810   13811   13812   13813   13814   13815
   13816   13817   13806   13809   13810   13811   13812   13815   13816   13809
   13811       0       0   13810   13811   13812   13813   13814   13815   13816
   13818   13819   13820   13812   13813   13814   13815   13817   13818   13812
   13813   13815   13816   13817   13818   13819   13820   13821   13822   13823
   13814   13815   13816   13817   13818   13821   13822   13815   13817   13816
   13817   13818   13819   13820   13821   13822   13824   13818   13819   13820
   13821   13823   13824   13818   13819   13821   13822   13823   13824   13820
   13821   13822   13823   13824   13821   13823   13822   13823   13824   13824
   13824       0   13826   13827   13828   13829   13830   13831   13832   13833
   13834   13835   13836   13837   13838   13839   13840   13841   13842   13827
   13828   13829   13830   13831   13832   13833   13834   13835   13836   13843
   13828   13829   13830   13831   13832   13833   13834   13835   13837   13838
   13839   13843   13844   13829   13830   13831   13832   13833   13834   13838
   13840   13841   13842   13844   13845   13846   13847   13830   13831   13835
   13836   13837   13843   13835   13836   13832   13835   13836   13837   13838
   13839   13843   13833   13835   13837   13838   13839   13840   13844   13834
   13838   13839   13840   13841   13842   13844   13845   13846   13848   13849
   13850   13838   13840   13841   13842   13845   13847   13848   13836   13837
   13843   13843   13843   13839   13840   13844   13845   13846   13844   13841
   13844   13845   13846   13847   13848   13849   13850   13851   13852   13853
   13842   13845   13846   13847   13848   13851   13852   13845   13847       0
       0   13846   13847   13848   13849   13850   13851   13852   13854   13855
   13856   13848   13849   13850   13851   13853   13854   13848   13849   13851
   13852   13853   13854   13855   13856   13857   13858   13859   13850   13851
   13852   13853   13854   13857   13858   13851   13853   13852   13853   13854
   13855   13856   13857   13858   13860   13854   13855   13856   13857   13859
   13860   13854   13855   13857   13858   13859   13860   13856   13857   13858
   13859   13860   13857   13859   13858   13859   13860   13860   13860       0
   13862   13863   13864   13865   13866   13867   13868   13869   13870   13871
   13872   13873   13874   13875   13876   13877   13878   13863   13864   13865
   13866   13867   13868   13869   13870   13871   13872   13879   13864   13865
   13866   13867   13868   13869   13870   13871   13873   13874   13875   13879
   13880   13865   13866   13867   13868   13869   13870   13874   13876   13877
   13878   13880   13881   13882   13883   13866   13867   13871   13872   13873
   13879   13871   13872   13868   13871   13872   13873   13874   13875   13879
   13869   13871   13873   13874   13875   13876   13880   13870   13874   13875
   13876   13877   13878   13880   13881   13882   13884   13885   13886   13874
   13876   13877   13878   13881   13883   13884   13872   13873   13879   13879
   13879   13875   13876   13880   13881   13882   13880   13877   13880   13881
   13882   13883   13884   13885   13886   13887   13888   13889   13878   13881
   13882   13883   13884   13887   13888   13881   13883       0       0   13882
   13883   13884   13885   13886   13887   13888   13890   13891   13892   13884
   13885   13886   13887   13889   13890   13884   13885   13887   13888   13889
   13890   13891   13892   13893   13894   13895   13886   13887   13888   13889
   13890   13893   13894   13887   13889   13888   13889   13890   13891   13892
   13893   13894   13896   13890   13891   13892   13893   13895   13896   13890
   13891   13893   13894   13895   13896   13892   13893   13894   13895   13896
   13893   13895   13894   13895   13896   13896   13896       0   13898   13899
   13900   13901   13902   13903   13904   13905   13906   13907   13908   13909
   13910   13911   13912   13913   13914   13899   13900   13901   13902   13903
   13904   13905   13906   13907   13908   13915   13900   13901   13902   13903
   13904   13905   13906   13907   13909   13910   13911   13915   13916   13901
   13902   13903   13904   13905   13906   13910   13912   13913   13914   13916
   13917   13918   13919   13902   13903   13907   13908   13909   13915   13907
   13908   13904   13907   13908   13909   13910   13911   13915   13905   13907
   13909   13910   13911   13912   13916   13906   13910   13911   13912   13913
   13914   13916   13917   13918   13920   13921   13922   13910   13912   13913
   13914   13917   13919   13920   13908   13909   13915   13915   13915   13911
   13912   13916   13917   13918   13916   13913   13916   13917   13918   13919
   13920   13921   13922   13923   13924   13925   13914   13917   13918   13919
   13920   13923   13924   13917   13919       0       0   13918   13919   13920
   13921   13922   13923   13924   13926   13927   13928   13920   13921   13922
   13923   13925   13926   13920   13921   13923   13924   13925   13926   13927
   13928   13929   13930   13931   13922   13923   13924   13925   13926   13929
   13930   13923   13925   13924   13925   13926   13927   13928   13929   13930
   13932   13926   13927   13928   13929   13931   13932   13926   13927   13929
   13930   13931   13932   13928   13929   13930   13931   13932   13929   13931
   13930   13931   13932   13932   13932       0   13934   13935   13936   13937
   13938   13939   13940   13941   13942   13943   13944   13945   13946   13947
   13948   13949   13950   13935   13936   13937   13938   13939   13940   13941
   13942   13943   13944   13951   13936   13937   13938   13939   13940   13941
   13942   13943   13945   13946   13947   13951   13952   13937   13938   13939
   13940   13941   13942   13946   13948   13949   13950   13952   13953   13954
   13955   13938   13939   13943   13944   13945   13951   13943   13944   13940
   13943   13944   13945   13946   13947   13951   13941   13943   13945   13946
   13947   13948   13952   13942   13946   13947   13948   13949   13950   13952
   13953   13954   13956   13957   13958   13946   13948   13949   13950   13953
   13955   13956   13944   13945   13951   13951   13951   13947   13948   13952
   13953   13954   13952   13949   13952   13953   13954   13955   13956   13957
   13958   13959   13960   13961   13950   13953   13954   13955   13956   13959
   13960   13953   13955       0       0   13954   13955   13956   13957   13958
   13959   13960   13962   13963   13964   13956   13957   13958   13959   13961
   13962   13956   13957   13959   13960   13961   13962   13963   13964   13965
   13966   13967   13958   13959   13960   13961   13962   13965   13966   13959
   13961   13960   13961   13962   13963   13964   13965   13966   13968   13962
   13963   13964   13965   13967   13968   13962   13963   13965   13966   13967
   13968   13964   13965   13966   13967   13968   13965   13967   13966   13967
   13968   13968   13968       0   13970   13971   13972   13973   13974   13975
   13976   13977   13978   13979   13980   13981   13982   13983   13984   13985
   13986   13971   13972   13973   13974   13975   13976   13977   13978   13979
   13980   13987   13972   13973   13974   13975   13976   13977   13978   13979
   13981   13982   13983   13987   13988   13973   13974   13975   13976   13977
   13978   13982   13984   13985   13986   13988   13989   13990   13991   13974
   13975   13979   13980   13981   13987   13979   13980   13976   13979   13980
   13981   13982   13983   13987   13977   13979   13981   13982   13983   13984
   13988   13978   13982   13983   13984   13985   13986   13988   13989   13990
   13992   13993   13994   13982   13984   13985   13986   13989   13991   13992
   13980   13981   13987   13987   13987   13983   13984   13988   13989   13990
   13988   13985   13988   13989   13990   13991   13992   13993   13994   13995
   13996   13997   13986   13989   13990   13991   13992   13995   13996   13989
   13991       0       0   13990   13991   13992   13993   13994   13995   13996
   13998   13999   14000   13992   13993   13994   13995   13997   13998   13992
   13993   13995   13996   13997   13998   13999   14000   14001   14002   14003
   13994   13995   13996   13997   13998   14001   14002   13995   13997   13996
   13997   13998   13999   14000   14001   14002   14004   13998   13999   14000
   14001   14003   14004   13998   13999   14001   14002   14003   14004   14000
   14001   14002   14003   14004   14001   14003   14002   14003   14004   14004
   14004       0   14006   14007   14008   14009   14010   14011   14012   14013
   14014   14015   14016   14017   14018   14019   14020   14021   14022   14007
   14008   14009   14010   14011   14012   14013   14014   14015   14016   14023
   14008   14009   14010   14011   14012   14013   14014   14015   14017   14018
   14019   14023   14024   14009   14010   14011   14012   14013   14014   14018
   14020   14021   14022   14024   14025   14026   14027   14010   14011   14015
   14016   14017   14023   14015   14016   14012   14015   14016   14017   14018
   14019   14023   14013   14015   14017   14018   14019   14020   14024   14014
   14018   14019   14020   14021   14022   14024   14025   14026   14028   14029
   14030   14018   14020   14021   14022   14025   14027   14028   14016   14017
   14023   14023   14023   14019   14020   14024   14025   14026   14024   14021
   14024   14025   14026   14027   14028   14029   14030   14031   14032   14033
   14022   14025   14026   14027   14028   14031   14032   14025   14027       0
       0   14026   14027   14028   14029   14030   14031   14032   14034   14035
   14036   14028   14029   14030   14031   14033   14034   14028   14029   14031
   14032   14033   14034   14035   14036   14037   14038   14039   14030   14031
   14032   14033   14034   14037   14038   14031   14033   14032   14033   14034
   14035   14036   14037   14038   14040   14034   14035   14036   14037   14039
   14040   14034   14035   14037   14038   14039   14040   14036   14037   14038
   14039   14040   14037   14039   14038   14039   14040   14040   14040       0
   14042   14043   14044   14045   14046   14047   14048   14049   14050   14051
   14052   14053   14054   14055   14056   14057   14058   14043   14044   14045
   14046   14047   14048   14049   14050   14051   14052   14059   14044   14045
   14046   14047   14048   14049   14050   14051   14053   14054   14055   14059
   14060   14045   14046   14047   14048   14049   14050   14054   14056   14057
   14058   14060   14061   14062   14063   14046   14047   14051   14052   14053
   14059   14051   14052   14048   14051   14052   14053   14054   14055   14059
   14049   14051   14053   14054   14055   14056   14060   14050   14054   14055
   14056   14057   14058   14060   14061   14062   14064   14065   14066   14054
   14056   14057   14058   14061   14063   14064   14052   14053   14059   14059
   14059   14055   14056   14060   14061   14062   14060   14057   14060   14061
   14062   14063   14064   14065   14066   14067   14068   14069   14058   14061
   14062   14063   14064   14067   14068   14061   14063       0       0   14062
   14063   14064   14065   14066   14067   14068   14070   14071   14072   14064
   14065   14066   14067   14069   14070   14064   14065   14067   14068   14069
   14070   14071   14072   14073   14074   14075   14066   14067   14068   14069
   14070   14073   14074   14067   14069   14068   14069   14070   14071   14072
   14073   14074   14076   14070   14071   14072   14073   14075   14076   14070
   14071   14073   14074   14075   14076   14072   14073   14074   14075   14076
   14073   14075   14074   14075   14076   14076   14076       0   14078   14079
   14080   14081   14082   14083   14084   14085   14086   14087   14088   14089
   14090   14091   14092   14093   14094   14079   14080   14081   14082   14083
   14084   14085   14086   14087   14088   14095   14080   14081   14082   14083
   14084   14085   14086   14087   14089   14090   14091   14095   14096   14081
   14082   14083   14084   14085   14086   14090   14092   14093   14094   14096
   14097   14098   14099   14082   14083   14087   14088   14089   14095   14087
   14088   14084   14087   14088   14089   14090   14091   14095   14085   14087
   14089   14090   14091   14092   14096   14086   14090   14091   14092   14093
   14094   14096   14097   14098   14100   14101   14102   14090   14092   14093
   14094   14097   14099   14100   14088   14089   14095   14095   14095   14091
   14092   14096   14097   14098   14096   14093   14096   14097   14098   14099
   14100   14101   14102   14103   14104   14105   14094   14097   14098   14099
   14100   14103   14104   14097   14099       0       0   14098   14099   14100
   14101   14102   14103   14104   14106   14107   14108   14100   14101   14102
   14103   14105   14106   14100   14101   14103   14104   14105   14106   14107
   14108   14109   14110   14111   14102   14103   14104   14105   14106   14109
   14110   14103   14105   14104   14105   14106   14107   14108   14109   14110
   14112   14106   14107   14108   14109   14111   14112   14106   14107   14109
   14110   14111   14112   14108   14109   14110   14111   14112   14109   14111
   14110   14111   14112   14112   14112       0   14114   14115   14116   14117
   14118   14119   14120   14121   14122   14123   14124   14125   14126   14127
   14128   14129   14130   14115   14116   14117   14118   14119   14120   14121
   14122   14123   14124   14131   14116   14117   14118   14119   14120   14121
   14122   14123   14125   14126   14127   14131   14132   14117   14118   14119
   14120   14121   14122   14126   14128   14129   14130   14132   14133   14134
   14135   14118   14119   14123   14124   14125   14131   14123   14124   14120
   14123   14124   14125   14126   14127   14131   14121   14123   14125   14126
   14127   14128   14132   14122   14126   14127   14128   14129   14130   14132
   14133   14134   14136   14137   14138   14126   14128   14129   14130   14133
   14135   14136   14124   14125   14131   14131   14131   14127   14128   14132
   14133   14134   14132   14129   14132   14133   14134   14135   14136   14137
   14138   14139   14140   14141   14130   14133   14134   14135   14136   14139
   14140   14133   14135       0       0   14134   14135   14136   14137   14138
   14139   14140   14142   14143   14144   14136   14137   14138   14139   14141
   14142   14136   14137   14139   14140   14141   14142   14143   14144   14145
   14146   14147   14138   14139   14140   14141   14142   14145   14146   14139
   14141   14140   14141   14142   14143   14144   14145   14146   14148   14142
   14143   14144   14145   14147   14148   14142   14143   14145   14146   14147
   14148   14144   14145   14146   14147   14148   14145   14147   14146   14147
   14148   14148   14148       0   14150   14151   14152   14153   14154   14155
   14156   14157   14158   14159   14160   14161   14162   14163   14164   14165
   14166   14151   14152   14153   14154   14155   14156   14157   14158   14159
   14160   14167   14152   14153   14154   14155   14156   14157   14158   14159
   14161   14162   14163   14167   14168   14153   14154   14155   14156   14157
   14158   14162   14164   14165   14166   14168   14169   14170   14171   14154
   14155   14159   14160   14161   14167   14159   14160   14156   14159   14160
   14161   14162   14163   14167   14157   14159   14161   14162   14163   14164
   14168   14158   14162   14163   14164   14165   14166   14168   14169   14170
   14172   14173   14174   14162   14164   14165   14166   14169   14171   14172
   14160   14161   14167   14167   14167   14163   14164   14168   14169   14170
   14168   14165   14168   14169   14170   14171   14172   14173   14174   14175
   14176   14177   14166   14169   14170   14171   14172   14175   14176   14169
   14171       0       0   14170   14171   14172   14173   14174   14175   14176
   14178   14179   14180   14172   14173   14174   14175   14177   14178   14172
   14173   14175   14176   14177   14178   14179   14180   14181   14182   14183
   14174   14175   14176   14177   14178   14181   14182   14175   14177   14176
   14177   14178   14179   14180   14181   14182   14184   14178   14179   14180
   14181   14183   14184   14178   14179   14181   14182   14183   14184   14180
   14181   14182   14183   14184   14181   14183   14182   14183   14184   14184
   14184       0   14186   14187   14188   14189   14190   14191   14192   14193
   14194   14195   14196   14197   14198   14199   14200   14201   14202   14187
   14188   14189   14190   14191   14192   14193   14194   14195   14196   14203
   14188   14189   14190   14191   14192   14193   14194   14195   14197   14198
   14199   14203   14204   14189   14190   14191   14192   14193   14194   14198
   14200   14201   14202   14204   14205   14206   14207   14190   14191   14195
   14196   14197   14203   14195   14196   14192   14195   14196   14197   14198
   14199   14203   14193   14195   14197   14198   14199   14200   14204   14194
   14198   14199   14200   14201   14202   14204   14205   14206   14208   14209
   14210   14198   14200   14201   14202   14205   14207   14208   14196   14197
   14203   14203   14203   14199   14200   14204   14205   14206   14204   14201
   14204   14205   14206   14207   14208   14209   14210   14211   14212   14213
   14202   14205   14206   14207   14208   14211   14212   14205   14207       0
       0   14206   14207   14208   14209   14210   14211   14212   14214   14215
   14216   14208   14209   14210   14211   14213   14214   14208   14209   14211
   14212   14213   14214   14215   14216   14217   14218   14219   14210   14211
   14212   14213   14214   14217   14218   14211   14213   14212   14213   14214
   14215   14216   14217   14218   14220   14214   14215   14216   14217   14219
   14220   14214   14215   14217   14218   14219   14220   14216   14217   14218
   14219   14220   14217   14219   14218   14219   14220   14220   14220       0
   14222   14223   14224   14225   14226   14227   14228   14229   14230   14231
   14232   14233   14234   14235   14236   14237   14238   14223   14224   14225
   14226   14227   14228   14229   14230   14231   14232   14239   14224   14225
   14226   14227   14228   14229   14230   14231   14233   14234   14235   14239
   14240   14225   14226   14227   14228   14229   14230   14234   14236   14237
   14238   14240   14241   14242   14243   14226   14227   14231   14232   14233
   14239   14231   14232   14228   14231   14232   14233   14234   14235   14239
   14229   14231   14233   14234   14235   14236   14240   14230   14234   14235
   14236   14237   14238   14240   14241   14242   14244   14245   14246   14234
   14236   14237   14238   14241   14243   14244   14232   14233   14239   14239
   14239   14235   14236   14240   14241   14242   14240   14237   14240   14241
   14242   14243   14244   14245   14246   14247   14248   14249   14238   14241
   14242   14243   14244   14247   14248   14241   14243       0       0   14242
   14243   14244   14245   14246   14247   14248   14250   14251   14252   14244
   14245   14246   14247   14249   14250   14244   14245   14247   14248   14249
   14250   14251   14252   14253   14254   14255   14246   14247   14248   14249
   14250   14253   14254   14247   14249   14248   14249   14250   14251   14252
   14253   14254   14256   14250   14251   14252   14253   14255   14256   14250
   14251   14253   14254   14255   14256   14252   14253   14254   14255   14256
   14253   14255   14254   14255   14256   14256   14256       0   14258   14259
   14260   14261   14262   14263   14264   14265   14266   14267   14268   14269
   14270   14271   14272   14273   14274   14259   14260   14261   14262   14263
   14264   14265   14266   14267   14268   14275   14260   14261   14262   14263
   14264   14265   14266   14267   14269   14270   14271   14275   14276   14261
   14262   14263   14264   14265   14266   14270   14272   14273   14274   14276
   14277   14278   14279   14262   14263   14267   14268   14269   14275   14267
   14268   14264   14267   14268   14269   14270   14271   14275   14265   14267
   14269   14270   14271   14272   14276   14266   14270   14271   14272   14273
   14274   14276   14277   14278   14280   14281   14282   14270   14272   14273
   14274   14277   14279   14280   14268   14269   14275   14275   14275   14271
   14272   14276   14277   14278   14276   14273   14276   14277   14278   14279
   14280   14281   14282   14283   14284   14285   14274   14277   14278   14279
   14280   14283   14284   14277   14279       0       0   14278   14279   14280
   14281   14282   14283   14284   14286   14287   14288   14280   14281   14282
   14283   14285   14286   14280   14281   14283   14284   14285   14286   14287
   14288   14289   14290   14291   14282   14283   14284   14285   14286   14289
   14290   14283   14285   14284   14285   14286   14287   14288   14289   14290
   14292   14286   14287   14288   14289   14291   14292   14286   14287   14289
   14290   14291   14292   14288   14289   14290   14291   14292   14289   14291
   14290   14291   14292   14292   14292       0   14294   14295   14296   14297
   14298   14299   14300   14301   14302   14303   14304   14305   14306   14307
   14308   14309   14310   14295   14296   14297   14298   14299   14300   14301
   14302   14303   14304   14311   14296   14297   14298   14299   14300   14301
   14302   14303   14305   14306   14307   14311   14312   14297   14298   14299
   14300   14301   14302   14306   14308   14309   14310   14312   14313   14314
   14315   14298   14299   14303   14304   14305   14311   14303   14304   14300
   14303   14304   14305   14306   14307   14311   14301   14303   14305   14306
   14307   14308   14312   14302   14306   14307   14308   14309   14310   14312
   14313   14314   14316   14317   14318   14306   14308   14309   14310   14313
   14315   14316   14304   14305   14311   14311   14311   14307   14308   14312
   14313   14314   14312   14309   14312   14313   14314   14315   14316   14317
   14318   14319   14320   14321   14310   14313   14314   14315   14316   14319
   14320   14313   14315       0       0   14314   14315   14316   14317   14318
   14319   14320   14322   14323   14324   14316   14317   14318   14319   14321
   14322   14316   14317   14319   14320   14321   14322   14323   14324   14325
   14326   14327   14318   14319   14320   14321   14322   14325   14326   14319
   14321   14320   14321   14322   14323   14324   14325   14326   14328   14322
   14323   14324   14325   14327   14328   14322   14323   14325   14326   14327
   14328   14324   14325   14326   14327   14328   14325   14327   14326   14327
   14328   14328   14328       0   14330   14331   14332   14333   14334   14335
   14336   14337   14338   14339   14340   14341   14342   14343   14344   14345
   14346   14331   14332   14333   14334   14335   14336   14337   14338   14339
   14340   14347   14332   14333   14334   14335   14336   14337   14338   14339
   14341   14342   14343   14347   14348   14333   14334   14335   14336   14337
   14338   14342   14344   14345   14346   14348   14349   14350   14351   14334
   14335   14339   14340   14341   14347   14339   14340   14336   14339   14340
   14341   14342   14343   14347   14337   14339   14341   14342   14343   14344
   14348   14338   14342   14343   14344   14345   14346   14348   14349   14350
   14352   14353   14354   14342   14344   14345   14346   14349   14351   14352
   14340   14341   14347   14347   14347   14343   14344   14348   14349   14350
   14348   14345   14348   14349   14350   14351   14352   14353   14354   14355
   14356   14357   14346   14349   14350   14351   14352   14355   14356   14349
   14351       0       0   14350   14351   14352   14353   14354   14355   14356
   14358   14359   14360   14352   14353   14354   14355   14357   14358   14352
   14353   14355   14356   14357   14358   14359   14360   14361   14362   14363
   14354   14355   14356   14357   14358   14361   14362   14355   14357   14356
   14357   14358   14359   14360   14361   14362   14364   14358   14359   14360
   14361   14363   14364   14358   14359   14361   14362   14363   14364   14360
   14361   14362   14363   14364   14361   14363   14362   14363   14364   14364
   14364       0   14366   14367   14368   14369   14370   14371   14372   14373
   14374   14375   14376   14377   14378   14379   14380   14381   14382   14367
   14368   14369   14370   14371   14372   14373   14374   14375   14376   14383
   14368   14369   14370   14371   14372   14373   14374   14375   14377   14378
   14379   14383   14384   14369   14370   14371   14372   14373   14374   14378
   14380   14381   14382   14384   14385   14386   14387   14370   14371   14375
   14376   14377   14383   14375   14376   14372   14375   14376   14377   14378
   14379   14383   14373   14375   14377   14378   14379   14380   14384   14374
   14378   14379   14380   14381   14382   14384   14385   14386   14388   14389
   14390   14378   14380   14381   14382   14385   14387   14388   14376   14377
   14383   14383   14383   14379   14380   14384   14385   14386   14384   14381
   14384   14385   14386   14387   14388   14389   14390   14391   14392   14393
   14382   14385   14386   14387   14388   14391   14392   14385   14387       0
       0   14386   14387   14388   14389   14390   14391   14392   14394   14395
   14396   14388   14389   14390   14391   14393   14394   14388   14389   14391
   14392   14393   14394   14395   14396   14397   14398   14399   14390   14391
   14392   14393   14394   14397   14398   14391   14393   14392   14393   14394
   14395   14396   14397   14398   14400   14394   14395   14396   14397   14399
   14400   14394   14395   14397   14398   14399   14400   14396   14397   14398
   14399   14400   14397   14399   14398   14399   14400   14400   14400       0
   14402   14403   14404   14405   14406   14407   14408   14409   14410   14411
   14412   14413   14414   14415   14416   14417   14418   14403   14404   14405
   14406   14407   14408   14409   14410   14411   14412   14419   14404   14405
   14406   14407   14408   14409   14410   14411   14413   14414   14415   14419
   14420   14405   14406   14407   14408   14409   14410   14414   14416   14417
   14418   14420   14421   14422   14423   14406   14407   14411   14412   14413
   14419   14411   14412   14408   14411   14412   14413   14414   14415   14419
   14409   14411   14413   14414   14415   14416   14420   14410   14414   14415
   14416   14417   14418   14420   14421   14422   14424   14425   14426   14414
   14416   14417   14418   14421   14423   14424   14412   14413   14419   14419
   14419   14415   14416   14420   14421   14422   14420   14417   14420   14421
   14422   14423   14424   14425   14426   14427   14428   14429   14418   14421
   14422   14423   14424   14427   14428   14421   14423       0       0   14422
   14423   14424   14425   14426   14427   14428   14430   14431   14432   14424
   14425   14426   14427   14429   14430   14424   14425   14427   14428   14429
   14430   14431   14432   14433   14434   14435   14426   14427   14428   14429
   14430   14433   14434   14427   14429   14428   14429   14430   14431   14432
   14433   14434   14436   14430   14431   14432   14433   14435   14436   14430
   14431   14433   14434   14435   14436   14432   14433   14434   14435   14436
   14433   14435   14434   14435   14436   14436   14436       0   14438   14439
   14440   14441   14442   14443   14444   14445   14446   14447   14448   14449
   14450   14451   14452   14453   14454   14439   14440   14441   14442   14443
   14444   14445   14446   14447   14448   14455   14440   14441   14442   14443
   14444   14445   14446   14447   14449   14450   14451   14455   14456   14441
   14442   14443   14444   14445   14446   14450   14452   14453   14454   14456
   14457   14458   14459   14442   14443   14447   14448   14449   14455   14447
   14448   14444   14447   14448   14449   14450   14451   14455   14445   14447
   14449   14450   14451   14452   14456   14446   14450   14451   14452   14453
   14454   14456   14457   14458   14460   14461   14462   14450   14452   14453
   14454   14457   14459   14460   14448   14449   14455   14455   14455   14451
   14452   14456   14457   14458   14456   14453   14456   14457   14458   14459
   14460   14461   14462   14463   14464   14465   14454   14457   14458   14459
   14460   14463   14464   14457   14459       0       0   14458   14459   14460
   14461   14462   14463   14464   14466   14467   14468   14460   14461   14462
   14463   14465   14466   14460   14461   14463   14464   14465   14466   14467
   14468   14469   14470   14471   14462   14463   14464   14465   14466   14469
   14470   14463   14465   14464   14465   14466   14467   14468   14469   14470
   14472   14466   14467   14468   14469   14471   14472   14466   14467   14469
   14470   14471   14472   14468   14469   14470   14471   14472   14469   14471
   14470   14471   14472   14472   14472       0   14474   14475   14476   14477
   14478   14479   14480   14481   14482   14483   14484   14485   14486   14487
   14488   14489   14490   14475   14476   14477   14478   14479   14480   14481
   14482   14483   14484   14491   14476   14477   14478   14479   14480   14481
   14482   14483   14485   14486   14487   14491   14492   14477   14478   14479
   14480   14481   14482   14486   14488   14489   14490   14492   14493   14494
   14495   14478   14479   14483   14484   14485   14491   14483   14484   14480
   14483   14484   14485   14486   14487   14491   14481   14483   14485   14486
   14487   14488   14492   14482   14486   14487   14488   14489   14490   14492
   14493   14494   14496   14497   14498   14486   14488   14489   14490   14493
   14495   14496   14484   14485   14491   14491   14491   14487   14488   14492
   14493   14494   14492   14489   14492   14493   14494   14495   14496   14497
   14498   14499   14500   14501   14490   14493   14494   14495   14496   14499
   14500   14493   14495       0       0   14494   14495   14496   14497   14498
   14499   14500   14502   14503   14504   14496   14497   14498   14499   14501
   14502   14496   14497   14499   14500   14501   14502   14503   14504   14505
   14506   14507   14498   14499   14500   14501   14502   14505   14506   14499
   14501   14500   14501   14502   14503   14504   14505   14506   14508   14502
   14503   14504   14505   14507   14508   14502   14503   14505   14506   14507
   14508   14504   14505   14506   14507   14508   14505   14507   14506   14507
   14508   14508   14508       0   14510   14511   14512   14513   14514   14515
   14516   14517   14518   14519   14520   14521   14522   14523   14524   14525
   14526   14511   14512   14513   14514   14515   14516   14517   14518   14519
   14520   14527   14512   14513   14514   14515   14516   14517   14518   14519
   14521   14522   14523   14527   14528   14513   14514   14515   14516   14517
   14518   14522   14524   14525   14526   14528   14529   14530   14531   14514
   14515   14519   14520   14521   14527   14519   14520   14516   14519   14520
   14521   14522   14523   14527   14517   14519   14521   14522   14523   14524
   14528   14518   14522   14523   14524   14525   14526   14528   14529   14530
   14532   14533   14534   14522   14524   14525   14526   14529   14531   14532
   14520   14521   14527   14527   14527   14523   14524   14528   14529   14530
   14528   14525   14528   14529   14530   14531   14532   14533   14534   14535
   14536   14537   14526   14529   14530   14531   14532   14535   14536   14529
   14531       0       0   14530   14531   14532   14533   14534   14535   14536
   14538   14539   14540   14532   14533   14534   14535   14537   14538   14532
   14533   14535   14536   14537   14538   14539   14540   14541   14542   14543
   14534   14535   14536   14537   14538   14541   14542   14535   14537   14536
   14537   14538   14539   14540   14541   14542   14544   14538   14539   14540
   14541   14543   14544   14538   14539   14541   14542   14543   14544   14540
   14541   14542   14543   14544   14541   14543   14542   14543   14544   14544
   14544       0   14546   14547   14548   14549   14550   14551   14552   14553
   14554   14555   14556   14557   14558   14559   14560   14561   14562   14547
   14548   14549   14550   14551   14552   14553   14554   14555   14556   14563
   14548   14549   14550   14551   14552   14553   14554   14555   14557   14558
   14559   14563   14564   14549   14550   14551   14552   14553   14554   14558
   14560   14561   14562   14564   14565   14566   14567   14550   14551   14555
   14556   14557   14563   14555   14556   14552   14555   14556   14557   14558
   14559   14563   14553   14555   14557   14558   14559   14560   14564   14554
   14558   14559   14560   14561   14562   14564   14565   14566   14568   14569
   14570   14558   14560   14561   14562   14565   14567   14568   14556   14557
   14563   14563   14563   14559   14560   14564   14565   14566   14564   14561
   14564   14565   14566   14567   14568   14569   14570   14571   14572   14573
   14562   14565   14566   14567   14568   14571   14572   14565   14567       0
       0   14566   14567   14568   14569   14570   14571   14572   14574   14575
   14576   14568   14569   14570   14571   14573   14574   14568   14569   14571
   14572   14573   14574   14575   14576   14577   14578   14579   14570   14571
   14572   14573   14574   14577   14578   14571   14573   14572   14573   14574
   14575   14576   14577   14578   14580   14574   14575   14576   14577   14579
   14580   14574   14575   14577   14578   14579   14580   14576   14577   14578
   14579   14580   14577   14579   14578   14579   14580   14580   14580       0
   14582   14583   14584   14585   14586   14587   14588   14589   14590   14591
   14592   14593   14594   14595   14596   14597   14598   14583   14584   14585
   14586   14587   14588   14589   14590   14591   14592   14599   14584   14585
   14586   14587   14588   14589   14590   14591   14593   14594   14595   14599
   14600   14585   14586   14587   14588   14589   14590   14594   14596   14597
   14598   14600   14601   14602   14603   14586   14587   14591   14592   14593
   14599   14591   14592   14588   14591   14592   14593   14594   14595   14599
   14589   14591   14593   14594   14595   14596   14600   14590   14594   14595
   14596   14597   14598   14600   14601   14602   14604   14605   14606   14594
   14596   14597   14598   14601   14603   14604   14592   14593   14599   14599
   14599   14595   14596   14600   14601   14602   14600   14597   14600   14601
   14602   14603   14604   14605   14606   14607   14608   14609   14598   14601
   14602   14603   14604   14607   14608   14601   14603       0       0   14602
   14603   14604   14605   14606   14607   14608   14610   14611   14612   14604
   14605   14606   14607   14609   14610   14604   14605   14607   14608   14609
   14610   14611   14612   14613   14614   14615   14606   14607   14608   14609
   14610   14613   14614   14607   14609   14608   14609   14610   14611   14612
   14613   14614   14616   14610   14611   14612   14613   14615   14616   14610
   14611   14613   14614   14615   14616   14612   14613   14614   14615   14616
   14613   14615   14614   14615   14616   14616   14616       0   14618   14619
   14620   14621   14622   14623   14624   14625   14626   14627   14628   14629
   14630   14631   14632   14633   14634   14619   14620   14621   14622   14623
   14624   14625   14626   14627   14628   14635   14620   14621   14622   14623
   14624   14625   14626   14627   14629   14630   14631   14635   14636   14621
   14622   14623   14624   14625   14626   14630   14632   14633   14634   14636
   14637   14638   14639   14622   14623   14627   14628   14629   14635   14627
   14628   14624   14627   14628   14629   14630   14631   14635   14625   14627
   14629   14630   14631   14632   14636   14626   14630   14631   14632   14633
   14634   14636   14637   14638   14640   14641   14642   14630   14632   14633
   14634   14637   14639   14640   14628   14629   14635   14635   14635   14631
   14632   14636   14637   14638   14636   14633   14636   14637   14638   14639
   14640   14641   14642   14643   14644   14645   14634   14637   14638   14639
   14640   14643   14644   14637   14639       0       0   14638   14639   14640
   14641   14642   14643   14644   14646   14647   14648   14640   14641   14642
   14643   14645   14646   14640   14641   14643   14644   14645   14646   14647
   14648   14649   14650   14651   14642   14643   14644   14645   14646   14649
   14650   14643   14645   14644   14645   14646   14647   14648   14649   14650
   14652   14646   14647   14648   14649   14651   14652   14646   14647   14649
   14650   14651   14652   14648   14649   14650   14651   14652   14649   14651
   14650   14651   14652   14652   14652       0   14654   14655   14656   14657
   14658   14659   14660   14661   14662   14663   14664   14665   14666   14667
   14668   14669   14670   14655   14656   14657   14658   14659   14660   14661
   14662   14663   14664   14671   14656   14657   14658   14659   14660   14661
   14662   14663   14665   14666   14667   14671   14672   14657   14658   14659
   14660   14661   14662   14666   14668   14669   14670   14672   14673   14674
   14675   14658   14659   14663   14664   14665   14671   14663   14664   14660
   14663   14664   14665   14666   14667   14671   14661   14663   14665   14666
   14667   14668   14672   14662   14666   14667   14668   14669   14670   14672
   14673   14674   14676   14677   14678   14666   14668   14669   14670   14673
   14675   14676   14664   14665   14671   14671   14671   14667   14668   14672
   14673   14674   14672   14669   14672   14673   14674   14675   14676   14677
   14678   14679   14680   14681   14670   14673   14674   14675   14676   14679
   14680   14673   14675       0       0   14674   14675   14676   14677   14678
   14679   14680   14682   14683   14684   14676   14677   14678   14679   14681
   14682   14676   14677   14679   14680   14681   14682   14683   14684   14685
   14686   14687   14678   14679   14680   14681   14682   14685   14686   14679
   14681   14680   14681   14682   14683   14684   14685   14686   14688   14682
   14683   14684   14685   14687   14688   14682   14683   14685   14686   14687
   14688   14684   14685   14686   14687   14688   14685   14687   14686   14687
   14688   14688   14688       0   14690   14691   14692   14693   14694   14695
   14696   14697   14698   14699   14700   14701   14702   14703   14704   14705
   14706   14691   14692   14693   14694   14695   14696   14697   14698   14699
   14700   14707   14692   14693   14694   14695   14696   14697   14698   14699
   14701   14702   14703   14707   14708   14693   14694   14695   14696   14697
   14698   14702   14704   14705   14706   14708   14709   14710   14711   14694
   14695   14699   14700   14701   14707   14699   14700   14696   14699   14700
   14701   14702   14703   14707   14697   14699   14701   14702   14703   14704
   14708   14698   14702   14703   14704   14705   14706   14708   14709   14710
   14712   14713   14714   14702   14704   14705   14706   14709   14711   14712
   14700   14701   14707   14707   14707   14703   14704   14708   14709   14710
   14708   14705   14708   14709   14710   14711   14712   14713   14714   14715
   14716   14717   14706   14709   14710   14711   14712   14715   14716   14709
   14711       0       0   14710   14711   14712   14713   14714   14715   14716
   14718   14719   14720   14712   14713   14714   14715   14717   14718   14712
   14713   14715   14716   14717   14718   14719   14720   14721   14722   14723
   14714   14715   14716   14717   14718   14721   14722   14715   14717   14716
   14717   14718   14719   14720   14721   14722   14724   14718   14719   14720
   14721   14723   14724   14718   14719   14721   14722   14723   14724   14720
   14721   14722   14723   14724   14721   14723   14722   14723   14724   14724
   14724       0   14726   14727   14728   14729   14730   14731   14732   14733
   14734   14735   14736   14737   14738   14739   14740   14741   14742   14727
   14728   14729   14730   14731   14732   14733   14734   14735   14736   14743
   14728   14729   14730   14731   14732   14733   14734   14735   14737   14738
   14739   14743   14744   14729   14730   14731   14732   14733   14734   14738
   14740   14741   14742   14744   14745   14746   14747   14730   14731   14735
   14736   14737   14743   14735   14736   14732   14735   14736   14737   14738
   14739   14743   14733   14735   14737   14738   14739   14740   14744   14734
   14738   14739   14740   14741   14742   14744   14745   14746   14748   14749
   14750   14738   14740   14741   14742   14745   14747   14748   14736   14737
   14743   14743   14743   14739   14740   14744   14745   14746   14744   14741
   14744   14745   14746   14747   14748   14749   14750   14751   14752   14753
   14742   14745   14746   14747   14748   14751   14752   14745   14747       0
       0   14746   14747   14748   14749   14750   14751   14752   14754   14755
   14756   14748   14749   14750   14751   14753   14754   14748   14749   14751
   14752   14753   14754   14755   14756   14757   14758   14759   14750   14751
   14752   14753   14754   14757   14758   14751   14753   14752   14753   14754
   14755   14756   14757   14758   14760   14754   14755   14756   14757   14759
   14760   14754   14755   14757   14758   14759   14760   14756   14757   14758
   14759   14760   14757   14759   14758   14759   14760   14760   14760       0
   14762   14763   14764   14765   14766   14767   14768   14769   14770   14771
   14772   14773   14774   14775   14776   14777   14778   14763   14764   14765
   14766   14767   14768   14769   14770   14771   14772   14779   14764   14765
   14766   14767   14768   14769   14770   14771   14773   14774   14775   14779
   14780   14765   14766   14767   14768   14769   14770   14774   14776   14777
   14778   14780   14781   14782   14783   14766   14767   14771   14772   14773
   14779   14771   14772   14768   14771   14772   14773   14774   14775   14779
   14769   14771   14773   14774   14775   14776   14780   14770   14774   14775
   14776   14777   14778   14780   14781   14782   14784   14785   14786   14774
   14776   14777   14778   14781   14783   14784   14772   14773   14779   14779
   14779   14775   14776   14780   14781   14782   14780   14777   14780   14781
   14782   14783   14784   14785   14786   14787   14788   14789   14778   14781
   14782   14783   14784   14787   14788   14781   14783       0       0   14782
   14783   14784   14785   14786   14787   14788   14790   14791   14792   14784
   14785   14786   14787   14789   14790   14784   14785   14787   14788   14789
   14790   14791   14792   14793   14794   14795   14786   14787   14788   14789
   14790   14793   14794   14787   14789   14788   14789   14790   14791   14792
   14793   14794   14796   14790   14791   14792   14793   14795   14796   14790
   14791   14793   14794   14795   14796   14792   14793   14794   14795   14796
   14793   14795   14794   14795   14796   14796   14796       0   14798   14799
   14800   14801   14802   14803   14804   14805   14806   14807   14808   14809
   14810   14811   14812   14813   14814   14799   14800   14801   14802   14803
   14804   14805   14806   14807   14808   14815   14800   14801   14802   14803
   14804   14805   14806   14807   14809   14810   14811   14815   14816   14801
   14802   14803   14804   14805   14806   14810   14812   14813   14814   14816
   14817   14818   14819   14802   14803   14807   14808   14809   14815   14807
   14808   14804   14807   14808   14809   14810   14811   14815   14805   14807
   14809   14810   14811   14812   14816   14806   14810   14811   14812   14813
   14814   14816   14817   14818   14820   14821   14822   14810   14812   14813
   14814   14817   14819   14820   14808   14809   14815   14815   14815   14811
   14812   14816   14817   14818   14816   14813   14816   14817   14818   14819
   14820   14821   14822   14823   14824   14825   14814   14817   14818   14819
   14820   14823   14824   14817   14819       0       0   14818   14819   14820
   14821   14822   14823   14824   14826   14827   14828   14820   14821   14822
   14823   14825   14826   14820   14821   14823   14824   14825   14826   14827
   14828   14829   14830   14831   14822   14823   14824   14825   14826   14829
   14830   14823   14825   14824   14825   14826   14827   14828   14829   14830
   14832   14826   14827   14828   14829   14831   14832   14826   14827   14829
   14830   14831   14832   14828   14829   14830   14831   14832   14829   14831
   14830   14831   14832   14832   14832       0   14834   14835   14836   14837
   14838   14839   14840   14841   14842   14843   14844   14845   14846   14847
   14848   14849   14850   14835   14836   14837   14838   14839   14840   14841
   14842   14843   14844   14851   14836   14837   14838   14839   14840   14841
   14842   14843   14845   14846   14847   14851   14852   14837   14838   14839
   14840   14841   14842   14846   14848   14849   14850   14852   14853   14854
   14855   14838   14839   14843   14844   14845   14851   14843   14844   14840
   14843   14844   14845   14846   14847   14851   14841   14843   14845   14846
   14847   14848   14852   14842   14846   14847   14848   14849   14850   14852
   14853   14854   14856   14857   14858   14846   14848   14849   14850   14853
   14855   14856   14844   14845   14851   14851   14851   14847   14848   14852
   14853   14854   14852   14849   14852   14853   14854   14855   14856   14857
   14858   14859   14860   14861   14850   14853   14854   14855   14856   14859
   14860   14853   14855       0       0   14854   14855   14856   14857   14858
   14859   14860   14862   14863   14864   14856   14857   14858   14859   14861
   14862   14856   14857   14859   14860   14861   14862   14863   14864   14865
   14866   14867   14858   14859   14860   14861   14862   14865   14866   14859
   14861   14860   14861   14862   14863   14864   14865   14866   14868   14862
   14863   14864   14865   14867   14868   14862   14863   14865   14866   14867
   14868   14864   14865   14866   14867   14868   14865   14867   14866   14867
   14868   14868   14868       0   14870   14871   14872   14873   14874   14875
   14876   14877   14878   14879   14880   14881   14882   14883   14884   14885
   14886   14871   14872   14873   14874   14875   14876   14877   14878   14879
   14880   14887   14872   14873   14874   14875   14876   14877   14878   14879
   14881   14882   14883   14887   14888   14873   14874   14875   14876   14877
   14878   14882   14884   14885   14886   14888   14889   14890   14891   14874
   14875   14879   14880   14881   14887   14879   14880   14876   14879   14880
   14881   14882   14883   14887   14877   14879   14881   14882   14883   14884
   14888   14878   14882   14883   14884   14885   14886   14888   14889   14890
   14892   14893   14894   14882   14884   14885   14886   14889   14891   14892
   14880   14881   14887   14887   14887   14883   14884   14888   14889   14890
   14888   14885   14888   14889   14890   14891   14892   14893   14894   14895
   14896   14897   14886   14889   14890   14891   14892   14895   14896   14889
   14891       0       0   14890   14891   14892   14893   14894   14895   14896
   14898   14899   14900   14892   14893   14894   14895   14897   14898   14892
   14893   14895   14896   14897   14898   14899   14900   14901   14902   14903
   14894   14895   14896   14897   14898   14901   14902   14895   14897   14896
   14897   14898   14899   14900   14901   14902   14904   14898   14899   14900
   14901   14903   14904   14898   14899   14901   14902   14903   14904   14900
   14901   14902   14903   14904   14901   14903   14902   14903   14904   14904
   14904       0   14906   14907   14908   14909   14910   14911   14912   14913
   14914   14915   14916   14917   14918   14919   14920   14921   14922   14907
   14908   14909   14910   14911   14912   14913   14914   14915   14916   14923
   14908   14909   14910   14911   14912   14913   14914   14915   14917   14918
   14919   14923   14924   14909   14910   14911   14912   14913   14914   14918
   14920   14921   14922   14924   14925   14926   14927   14910   14911   14915
   14916   14917   14923   14915   14916   14912   14915   14916   14917   14918
   14919   14923   14913   14915   14917   14918   14919   14920   14924   14914
   14918   14919   14920   14921   14922   14924   14925   14926   14928   14929
   14930   14918   14920   14921   14922   14925   14927   14928   14916   14917
   14923   14923   14923   14919   14920   14924   14925   14926   14924   14921
   14924   14925   14926   14927   14928   14929   14930   14931   14932   14933
   14922   14925   14926   14927   14928   14931   14932   14925   14927       0
       0   14926   14927   14928   14929   14930   14931   14932   14934   14935
   14936   14928   14929   14930   14931   14933   14934   14928   14929   14931
   14932   14933   14934   14935   14936   14937   14938   14939   14930   14931
   14932   14933   14934   14937   14938   14931   14933   14932   14933   14934
   14935   14936   14937   14938   14940   14934   14935   14936   14937   14939
   14940   14934   14935   14937   14938   14939   14940   14936   14937   14938
   14939   14940   14937   14939   14938   14939   14940   14940   14940       0
   14942   14943   14944   14945   14946   14947   14948   14949   14950   14951
   14952   14953   14954   14955   14956   14957   14958   14943   14944   14945
   14946   14947   14948   14949   14950   14951   14952   14959   14944   14945
   14946   14947   14948   14949   14950   14951   14953   14954   14955   14959
   14960   14945   14946   14947   14948   14949   14950   14954   14956   14957
   14958   14960   14961   14962   14963   14946   14947   14951   14952   14953
   14959   14951   14952   14948   14951   14952   14953   14954   14955   14959
   14949   14951   14953   14954   14955   14956   14960   14950   14954   14955
   14956   14957   14958   14960   14961   14962   14964   14965   14966   14954
   14956   14957   14958   14961   14963   14964   14952   14953   14959   14959
   14959   14955   14956   14960   14961   14962   14960   14957   14960   14961
   14962   14963   14964   14965   14966   14967   14968   14969   14958   14961
   14962   14963   14964   14967   14968   14961   14963       0       0   14962
   14963   14964   14965   14966   14967   14968   14970   14971   14972   14964
   14965   14966   14967   14969   14970   14964   14965   14967   14968   14969
   14970   14971   14972   14973   14974   14975   14966   14967   14968   14969
   14970   14973   14974   14967   14969   14968   14969   14970   14971   14972
   14973   14974   14976   14970   14971   14972   14973   14975   14976   14970
   14971   14973   14974   14975   14976   14972   14973   14974   14975   14976
   14973   14975   14974   14975   14976   14976   14976       0   14978   14979
   14980   14981   14982   14983   14984   14985   14986   14987   14988   14989
   14990   14991   14992   14993   14994   14979   14980   14981   14982   14983
   14984   14985   14986   14987   14988   14995   14980   14981   14982   14983
   14984   14985   14986   14987   14989   14990   14991   14995   14996   14981
   14982   14983   14984   14985   14986   14990   14992   14993   14994   14996
   14997   14998   14999   14982   14983   14987   14988   14989   14995   14987
   14988   14984   14987   14988   14989   14990   14991   14995   14985   14987
   14989   14990   14991   14992   14996   14986   14990   14991   14992   14993
   14994   14996   14997   14998   15000   15001   15002   14990   14992   14993
   14994   14997   14999   15000   14988   14989   14995   14995   14995   14991
   14992   14996   14997   14998   14996   14993   14996   14997   14998   14999
   15000   15001   15002   15003   15004   15005   14994   14997   14998   14999
   15000   15003   15004   14997   14999       0       0   14998   14999   15000
   15001   15002   15003   15004   15006   15007   15008   15000   15001   15002
   15003   15005   15006   15000   15001   15003   15004   15005   15006   15007
   15008   15009   15010   15011   15002   15003   15004   15005   15006   15009
   15010   15003   15005   15004   15005   15006   15007   15008   15009   15010
   15012   15006   15007   15008   15009   15011   15012   15006   15007   15009
   15010   15011   15012   15008   15009   15010   15011   15012   15009   15011
   15010   15011   15012   15012   15012       0   15014   15015   15016   15017
   15018   15019   15020   15021   15022   15023   15024   15025   15026   15027
   15028   15029   15030   15015   15016   15017   15018   15019   15020   15021
   15022   15023   15024   15031   15016   15017   15018   15019   15020   15021
   15022   15023   15025   15026   15027   15031   15032   15017   15018   15019
   15020   15021   15022   15026   15028   15029   15030   15032   15033   15034
   15035   15018   15019   15023   15024   15025   15031   15023   15024   15020
   15023   15024   15025   15026   15027   15031   15021   15023   15025   15026
   15027   15028   15032   15022   15026   15027   15028   15029   15030   15032
   15033   15034   15036   15037   15038   15026   15028   15029   15030   15033
   15035   15036   15024   15025   15031   15031   15031   15027   15028   15032
   15033   15034   15032   15029   15032   15033   15034   15035   15036   15037
   15038   15039   15040   15041   15030   15033   15034   15035   15036   15039
   15040   15033   15035       0       0   15034   15035   15036   15037   15038
   15039   15040   15042   15043   15044   15036   15037   15038   15039   15041
   15042   15036   15037   15039   15040   15041   15042   15043   15044   15045
   15046   15047   15038   15039   15040   15041   15042   15045   15046   15039
   15041   15040   15041   15042   15043   15044   15045   15046   15048   15042
   15043   15044   15045   15047   15048   15042   15043   15045   15046   15047
   15048   15044   15045   15046   15047   15048   15045   15047   15046   15047
   15048   15048   15048       0   15050   15051   15052   15053   15054   15055
   15056   15057   15058   15059   15060   15061   15062   15063   15064   15065
   15066   15051   15052   15053   15054   15055   15056   15057   15058   15059
   15060   15067   15052   15053   15054   15055   15056   15057   15058   15059
   15061   15062   15063   15067   15068   15053   15054   15055   15056   15057
   15058   15062   15064   15065   15066   15068   15069   15070   15071   15054
   15055   15059   15060   15061   15067   15059   15060   15056   15059   15060
   15061   15062   15063   15067   15057   15059   15061   15062   15063   15064
   15068   15058   15062   15063   15064   15065   15066   15068   15069   15070
   15072   15073   15074   15062   15064   15065   15066   15069   15071   15072
   15060   15061   15067   15067   15067   15063   15064   15068   15069   15070
   15068   15065   15068   15069   15070   15071   15072   15073   15074   15075
   15076   15077   15066   15069   15070   15071   15072   15075   15076   15069
   15071       0       0   15070   15071   15072   15073   15074   15075   15076
   15078   15079   15080   15072   15073   15074   15075   15077   15078   15072
   15073   15075   15076   15077   15078   15079   15080   15081   15082   15083
   15074   15075   15076   15077   15078   15081   15082   15075   15077   15076
   15077   15078   15079   15080   15081   15082   15084   15078   15079   15080
   15081   15083   15084   15078   15079   15081   15082   15083   15084   15080
   15081   15082   15083   15084   15081   15083   15082   15083   15084   15084
   15084       0   15086   15087   15088   15089   15090   15091   15092   15093
   15094   15095   15096   15097   15098   15099   15100   15101   15102   15087
   15088   15089   15090   15091   15092   15093   15094   15095   15096   15103
   15088   15089   15090   15091   15092   15093   15094   15095   15097   15098
   15099   15103   15104   15089   15090   15091   15092   15093   15094   15098
   15100   15101   15102   15104   15105   15106   15107   15090   15091   15095
   15096   15097   15103   15095   15096   15092   15095   15096   15097   15098
   15099   15103   15093   15095   15097   15098   15099   15100   15104   15094
   15098   15099   15100   15101   15102   15104   15105   15106   15108   15109
   15110   15098   15100   15101   15102   15105   15107   15108   15096   15097
   15103   15103   15103   15099   15100   15104   15105   15106   15104   15101
   15104   15105   15106   15107   15108   15109   15110   15111   15112   15113
   15102   15105   15106   15107   15108   15111   15112   15105   15107       0
       0   15106   15107   15108   15109   15110   15111   15112   15114   15115
   15116   15108   15109   15110   15111   15113   15114   15108   15109   15111
   15112   15113   15114   15115   15116   15117   15118   15119   15110   15111
   15112   15113   15114   15117   15118   15111   15113   15112   15113   15114
   15115   15116   15117   15118   15120   15114   15115   15116   15117   15119
   15120   15114   15115   15117   15118   15119   15120   15116   15117   15118
   15119   15120   15117   15119   15118   15119   15120   15120   15120       0
   15122   15123   15124   15125   15126   15127   15128   15129   15130   15131
   15132   15133   15134   15135   15136   15137   15138   15123   15124   15125
   15126   15127   15128   15129   15130   15131   15132   15139   15124   15125
   15126   15127   15128   15129   15130   15131   15133   15134   15135   15139
   15140   15125   15126   15127   15128   15129   15130   15134   15136   15137
   15138   15140   15141   15142   15143   15126   15127   15131   15132   15133
   15139   15131   15132   15128   15131   15132   15133   15134   15135   15139
   15129   15131   15133   15134   15135   15136   15140   15130   15134   15135
   15136   15137   15138   15140   15141   15142   15144   15145   15146   15134
   15136   15137   15138   15141   15143   15144   15132   15133   15139   15139
   15139   15135   15136   15140   15141   15142   15140   15137   15140   15141
   15142   15143   15144   15145   15146   15147   15148   15149   15138   15141
   15142   15143   15144   15147   15148   15141   15143       0       0   15142
   15143   15144   15145   15146   15147   15148   15150   15151   15152   15144
   15145   15146   15147   15149   15150   15144   15145   15147   15148   15149
   15150   15151   15152   15153   15154   15155   15146   15147   15148   15149
   15150   15153   15154   15147   15149   15148   15149   15150   15151   15152
   15153   15154   15156   15150   15151   15152   15153   15155   15156   15150
   15151   15153   15154   15155   15156   15152   15153   15154   15155   15156
   15153   15155   15154   15155   15156   15156   15156       0   15158   15159
   15160   15161   15162   15163   15164   15165   15166   15167   15168   15169
   15170   15171   15172   15173   15174   15159   15160   15161   15162   15163
   15164   15165   15166   15167   15168   15175   15160   15161   15162   15163
   15164   15165   15166   15167   15169   15170   15171   15175   15176   15161
   15162   15163   15164   15165   15166   15170   15172   15173   15174   15176
   15177   15178   15179   15162   15163   15167   15168   15169   15175   15167
   15168   15164   15167   15168   15169   15170   15171   15175   15165   15167
   15169   15170   15171   15172   15176   15166   15170   15171   15172   15173
   15174   15176   15177   15178   15180   15181   15182   15170   15172   15173
   15174   15177   15179   15180   15168   15169   15175   15175   15175   15171
   15172   15176   15177   15178   15176   15173   15176   15177   15178   15179
   15180   15181   15182   15183   15184   15185   15174   15177   15178   15179
   15180   15183   15184   15177   15179       0       0   15178   15179   15180
   15181   15182   15183   15184   15186   15187   15188   15180   15181   15182
   15183   15185   15186   15180   15181   15183   15184   15185   15186   15187
   15188   15189   15190   15191   15182   15183   15184   15185   15186   15189
   15190   15183   15185   15184   15185   15186   15187   15188   15189   15190
   15192   15186   15187   15188   15189   15191   15192   15186   15187   15189
   15190   15191   15192   15188   15189   15190   15191   15192   15189   15191
   15190   15191   15192   15192   15192       0   15194   15195   15196   15197
   15198   15199   15200   15201   15202   15203   15204   15205   15206   15207
   15208   15209   15210   15195   15196   15197   15198   15199   15200   15201
   15202   15203   15204   15211   15196   15197   15198   15199   15200   15201
   15202   15203   15205   15206   15207   15211   15212   15197   15198   15199
   15200   15201   15202   15206   15208   15209   15210   15212   15213   15214
   15215   15198   15199   15203   15204   15205   15211   15203   15204   15200
   15203   15204   15205   15206   15207   15211   15201   15203   15205   15206
   15207   15208   15212   15202   15206   15207   15208   15209   15210   15212
   15213   15214   15216   15217   15218   15206   15208   15209   15210   15213
   15215   15216   15204   15205   15211   15211   15211   15207   15208   15212
   15213   15214   15212   15209   15212   15213   15214   15215   15216   15217
   15218   15219   15220   15221   15210   15213   15214   15215   15216   15219
   15220   15213   15215       0       0   15214   15215   15216   15217   15218
   15219   15220   15222   15223   15224   15216   15217   15218   15219   15221
   15222   15216   15217   15219   15220   15221   15222   15223   15224   15225
   15226   15227   15218   15219   15220   15221   15222   15225   15226   15219
   15221   15220   15221   15222   15223   15224   15225   15226   15228   15222
   15223   15224   15225   15227   15228   15222   15223   15225   15226   15227
   15228   15224   15225   15226   15227   15228   15225   15227   15226   15227
   15228   15228   15228       0   15230   15231   15232   15233   15234   15235
   15236   15237   15238   15239   15240   15241   15242   15243   15244   15245
   15246   15231   15232   15233   15234   15235   15236   15237   15238   15239
   15240   15247   15232   15233   15234   15235   15236   15237   15238   15239
   15241   15242   15243   15247   15248   15233   15234   15235   15236   15237
   15238   15242   15244   15245   15246   15248   15249   15250   15251   15234
   15235   15239   15240   15241   15247   15239   15240   15236   15239   15240
   15241   15242   15243   15247   15237   15239   15241   15242   15243   15244
   15248   15238   15242   15243   15244   15245   15246   15248   15249   15250
   15252   15253   15254   15242   15244   15245   15246   15249   15251   15252
   15240   15241   15247   15247   15247   15243   15244   15248   15249   15250
   15248   15245   15248   15249   15250   15251   15252   15253   15254   15255
   15256   15257   15246   15249   15250   15251   15252   15255   15256   15249
   15251       0       0   15250   15251   15252   15253   15254   15255   15256
   15258   15259   15260   15252   15253   15254   15255   15257   15258   15252
   15253   15255   15256   15257   15258   15259   15260   15261   15262   15263
   15254   15255   15256   15257   15258   15261   15262   15255   15257   15256
   15257   15258   15259   15260   15261   15262   15264   15258   15259   15260
   15261   15263   15264   15258   15259   15261   15262   15263   15264   15260
   15261   15262   15263   15264   15261   15263   15262   15263   15264   15264
   15264       0   15266   15267   15268   15269   15270   15271   15272   15273
   15274   15275   15276   15277   15278   15279   15280   15281   15282   15267
   15268   15269   15270   15271   15272   15273   15274   15275   15276   15283
   15268   15269   15270   15271   15272   15273   15274   15275   15277   15278
   15279   15283   15284   15269   15270   15271   15272   15273   15274   15278
   15280   15281   15282   15284   15285   15286   15287   15270   15271   15275
   15276   15277   15283   15275   15276   15272   15275   15276   15277   15278
   15279   15283   15273   15275   15277   15278   15279   15280   15284   15274
   15278   15279   15280   15281   15282   15284   15285   15286   15288   15289
   15290   15278   15280   15281   15282   15285   15287   15288   15276   15277
   15283   15283   15283   15279   15280   15284   15285   15286   15284   15281
   15284   15285   15286   15287   15288   15289   15290   15291   15292   15293
   15282   15285   15286   15287   15288   15291   15292   15285   15287       0
       0   15286   15287   15288   15289   15290   15291   15292   15294   15295
   15296   15288   15289   15290   15291   15293   15294   15288   15289   15291
   15292   15293   15294   15295   15296   15297   15298   15299   15290   15291
   15292   15293   15294   15297   15298   15291   15293   15292   15293   15294
   15295   15296   15297   15298   15300   15294   15295   15296   15297   15299
   15300   15294   15295   15297   15298   15299   15300   15296   15297   15298
   15299   15300   15297   15299   15298   15299   15300   15300   15300       0
   15302   15303   15304   15305   15306   15307   15308   15309   15310   15311
   15312   15313   15314   15315   15316   15317   15318   15303   15304   15305
   15306   15307   15308   15309   15310   15311   15312   15319   15304   15305
   15306   15307   15308   15309   15310   15311   15313   15314   15315   15319
   15320   15305   15306   15307   15308   15309   15310   15314   15316   15317
   15318   15320   15321   15322   15323   15306   15307   15311   15312   15313
   15319   15311   15312   15308   15311   15312   15313   15314   15315   15319
   15309   15311   15313   15314   15315   15316   15320   15310   15314   15315
   15316   15317   15318   15320   15321   15322   15324   15325   15326   15314
   15316   15317   15318   15321   15323   15324   15312   15313   15319   15319
   15319   15315   15316   15320   15321   15322   15320   15317   15320   15321
   15322   15323   15324   15325   15326   15327   15328   15329   15318   15321
   15322   15323   15324   15327   15328   15321   15323       0       0   15322
   15323   15324   15325   15326   15327   15328   15330   15331   15332   15324
   15325   15326   15327   15329   15330   15324   15325   15327   15328   15329
   15330   15331   15332   15333   15334   15335   15326   15327   15328   15329
   15330   15333   15334   15327   15329   15328   15329   15330   15331   15332
   15333   15334   15336   15330   15331   15332   15333   15335   15336   15330
   15331   15333   15334   15335   15336   15332   15333   15334   15335   15336
   15333   15335   15334   15335   15336   15336   15336       0   15338   15339
   15340   15341   15342   15343   15344   15345   15346   15347   15348   15349
   15350   15351   15352   15353   15354   15339   15340   15341   15342   15343
   15344   15345   15346   15347   15348   15355   15340   15341   15342   15343
   15344   15345   15346   15347   15349   15350   15351   15355   15356   15341
   15342   15343   15344   15345   15346   15350   15352   15353   15354   15356
   15357   15358   15359   15342   15343   15347   15348   15349   15355   15347
   15348   15344   15347   15348   15349   15350   15351   15355   15345   15347
   15349   15350   15351   15352   15356   15346   15350   15351   15352   15353
   15354   15356   15357   15358   15360   15361   15362   15350   15352   15353
   15354   15357   15359   15360   15348   15349   15355   15355   15355   15351
   15352   15356   15357   15358   15356   15353   15356   15357   15358   15359
   15360   15361   15362   15363   15364   15365   15354   15357   15358   15359
   15360   15363   15364   15357   15359       0       0   15358   15359   15360
   15361   15362   15363   15364   15366   15367   15368   15360   15361   15362
   15363   15365   15366   15360   15361   15363   15364   15365   15366   15367
   15368   15369   15370   15371   15362   15363   15364   15365   15366   15369
   15370   15363   15365   15364   15365   15366   15367   15368   15369   15370
   15372   15366   15367   15368   15369   15371   15372   15366   15367   15369
   15370   15371   15372   15368   15369   15370   15371   15372   15369   15371
   15370   15371   15372   15372   15372       0   15374   15375   15376   15377
   15378   15379   15380   15381   15382   15383   15384   15385   15386   15387
   15388   15389   15390   15375   15376   15377   15378   15379   15380   15381
   15382   15383   15384   15391   15376   15377   15378   15379   15380   15381
   15382   15383   15385   15386   15387   15391   15392   15377   15378   15379
   15380   15381   15382   15386   15388   15389   15390   15392   15393   15394
   15395   15378   15379   15383   15384   15385   15391   15383   15384   15380
   15383   15384   15385   15386   15387   15391   15381   15383   15385   15386
   15387   15388   15392   15382   15386   15387   15388   15389   15390   15392
   15393   15394   15396   15397   15398   15386   15388   15389   15390   15393
   15395   15396   15384   15385   15391   15391   15391   15387   15388   15392
   15393   15394   15392   15389   15392   15393   15394   15395   15396   15397
   15398   15399   15400   15401   15390   15393   15394   15395   15396   15399
   15400   15393   15395       0       0   15394   15395   15396   15397   15398
   15399   15400   15402   15403   15404   15396   15397   15398   15399   15401
   15402   15396   15397   15399   15400   15401   15402   15403   15404   15405
   15406   15407   15398   15399   15400   15401   15402   15405   15406   15399
   15401   15400   15401   15402   15403   15404   15405   15406   15408   15402
   15403   15404   15405   15407   15408   15402   15403   15405   15406   15407
   15408   15404   15405   15406   15407   15408   15405   15407   15406   15407
   15408   15408   15408       0   15410   15411   15412   15413   15414   15415
   15416   15417   15418   15419   15420   15421   15422   15423   15424   15425
   15426   15411   15412   15413   15414   15415   15416   15417   15418   15419
   15420   15427   15412   15413   15414   15415   15416   15417   15418   15419
   15421   15422   15423   15427   15428   15413   15414   15415   15416   15417
   15418   15422   15424   15425   15426   15428   15429   15430   15431   15414
   15415   15419   15420   15421   15427   15419   15420   15416   15419   15420
   15421   15422   15423   15427   15417   15419   15421   15422   15423   15424
   15428   15418   15422   15423   15424   15425   15426   15428   15429   15430
   15432   15433   15434   15422   15424   15425   15426   15429   15431   15432
   15420   15421   15427   15427   15427   15423   15424   15428   15429   15430
   15428   15425   15428   15429   15430   15431   15432   15433   15434   15435
   15436   15437   15426   15429   15430   15431   15432   15435   15436   15429
   15431       0       0   15430   15431   15432   15433   15434   15435   15436
   15438   15439   15440   15432   15433   15434   15435   15437   15438   15432
   15433   15435   15436   15437   15438   15439   15440   15441   15442   15443
   15434   15435   15436   15437   15438   15441   15442   15435   15437   15436
   15437   15438   15439   15440   15441   15442   15444   15438   15439   15440
   15441   15443   15444   15438   15439   15441   15442   15443   15444   15440
   15441   15442   15443   15444   15441   15443   15442   15443   15444   15444
   15444       0   15446   15447   15448   15449   15450   15451   15452   15453
   15454   15455   15456   15457   15458   15459   15460   15461   15462   15447
   15448   15449   15450   15451   15452   15453   15454   15455   15456   15463
   15448   15449   15450   15451   15452   15453   15454   15455   15457   15458
   15459   15463   15464   15449   15450   15451   15452   15453   15454   15458
   15460   15461   15462   15464   15465   15466   15467   15450   15451   15455
   15456   15457   15463   15455   15456   15452   15455   15456   15457   15458
   15459   15463   15453   15455   15457   15458   15459   15460   15464   15454
   15458   15459   15460   15461   15462   15464   15465   15466   15468   15469
   15470   15458   15460   15461   15462   15465   15467   15468   15456   15457
   15463   15463   15463   15459   15460   15464   15465   15466   15464   15461
   15464   15465   15466   15467   15468   15469   15470   15471   15472   15473
   15462   15465   15466   15467   15468   15471   15472   15465   15467       0
       0   15466   15467   15468   15469   15470   15471   15472   15474   15475
   15476   15468   15469   15470   15471   15473   15474   15468   15469   15471
   15472   15473   15474   15475   15476   15477   15478   15479   15470   15471
   15472   15473   15474   15477   15478   15471   15473   15472   15473   15474
   15475   15476   15477   15478   15480   15474   15475   15476   15477   15479
   15480   15474   15475   15477   15478   15479   15480   15476   15477   15478
   15479   15480   15477   15479   15478   15479   15480   15480   15480       0
   15482   15483   15484   15485   15486   15487   15488   15489   15490   15491
   15492   15493   15494   15495   15496   15497   15498   15483   15484   15485
   15486   15487   15488   15489   15490   15491   15492   15499   15484   15485
   15486   15487   15488   15489   15490   15491   15493   15494   15495   15499
   15500   15485   15486   15487   15488   15489   15490   15494   15496   15497
   15498   15500   15501   15502   15503   15486   15487   15491   15492   15493
   15499   15491   15492   15488   15491   15492   15493   15494   15495   15499
   15489   15491   15493   15494   15495   15496   15500   15490   15494   15495
   15496   15497   15498   15500   15501   15502   15504   15505   15506   15494
   15496   15497   15498   15501   15503   15504   15492   15493   15499   15499
   15499   15495   15496   15500   15501   15502   15500   15497   15500   15501
   15502   15503   15504   15505   15506   15507   15508   15509   15498   15501
   15502   15503   15504   15507   15508   15501   15503       0       0   15502
   15503   15504   15505   15506   15507   15508   15510   15511   15512   15504
   15505   15506   15507   15509   15510   15504   15505   15507   15508   15509
   15510   15511   15512   15513   15514   15515   15506   15507   15508   15509
   15510   15513   15514   15507   15509   15508   15509   15510   15511   15512
   15513   15514   15516   15510   15511   15512   15513   15515   15516   15510
   15511   15513   15514   15515   15516   15512   15513   15514   15515   15516
   15513   15515   15514   15515   15516   15516   15516       0   15518   15519
   15520   15521   15522   15523   15524   15525   15526   15527   15528   15529
   15530   15531   15532   15533   15534   15519   15520   15521   15522   15523
   15524   15525   15526   15527   15528   15535   15520   15521   15522   15523
   15524   15525   15526   15527   15529   15530   15531   15535   15536   15521
   15522   15523   15524   15525   15526   15530   15532   15533   15534   15536
   15537   15538   15539   15522   15523   15527   15528   15529   15535   15527
   15528   15524   15527   15528   15529   15530   15531   15535   15525   15527
   15529   15530   15531   15532   15536   15526   15530   15531   15532   15533
   15534   15536   15537   15538   15540   15541   15542   15530   15532   15533
   15534   15537   15539   15540   15528   15529   15535   15535   15535   15531
   15532   15536   15537   15538   15536   15533   15536   15537   15538   15539
   15540   15541   15542   15543   15544   15545   15534   15537   15538   15539
   15540   15543   15544   15537   15539       0       0   15538   15539   15540
   15541   15542   15543   15544   15546   15547   15548   15540   15541   15542
   15543   15545   15546   15540   15541   15543   15544   15545   15546   15547
   15548   15549   15550   15551   15542   15543   15544   15545   15546   15549
   15550   15543   15545   15544   15545   15546   15547   15548   15549   15550
   15552   15546   15547   15548   15549   15551   15552   15546   15547   15549
   15550   15551   15552   15548   15549   15550   15551   15552   15549   15551
   15550   15551   15552   15552   15552       0   15554   15555   15556   15557
   15558   15559   15560   15561   15562   15563   15564   15565   15566   15567
   15568   15569   15570   15555   15556   15557   15558   15559   15560   15561
   15562   15563   15564   15571   15556   15557   15558   15559   15560   15561
   15562   15563   15565   15566   15567   15571   15572   15557   15558   15559
   15560   15561   15562   15566   15568   15569   15570   15572   15573   15574
   15575   15558   15559   15563   15564   15565   15571   15563   15564   15560
   15563   15564   15565   15566   15567   15571   15561   15563   15565   15566
   15567   15568   15572   15562   15566   15567   15568   15569   15570   15572
   15573   15574   15576   15577   15578   15566   15568   15569   15570   15573
   15575   15576   15564   15565   15571   15571   15571   15567   15568   15572
   15573   15574   15572   15569   15572   15573   15574   15575   15576   15577
   15578   15579   15580   15581   15570   15573   15574   15575   15576   15579
   15580   15573   15575       0       0   15574   15575   15576   15577   15578
   15579   15580   15582   15583   15584   15576   15577   15578   15579   15581
   15582   15576   15577   15579   15580   15581   15582   15583   15584   15585
   15586   15587   15578   15579   15580   15581   15582   15585   15586   15579
   15581   15580   15581   15582   15583   15584   15585   15586   15588   15582
   15583   15584   15585   15587   15588   15582   15583   15585   15586   15587
   15588   15584   15585   15586   15587   15588   15585   15587   15586   15587
   15588   15588   15588       0   15590   15591   15592   15593   15594   15595
   15596   15597   15598   15599   15600   15601   15602   15603   15604   15605
   15606   15591   15592   15593   15594   15595   15596   15597   15598   15599
   15600   15607   15592   15593   15594   15595   15596   15597   15598   15599
   15601   15602   15603   15607   15608   15593   15594   15595   15596   15597
   15598   15602   15604   15605   15606   15608   15609   15610   15611   15594
   15595   15599   15600   15601   15607   15599   15600   15596   15599   15600
   15601   15602   15603   15607   15597   15599   15601   15602   15603   15604
   15608   15598   15602   15603   15604   15605   15606   15608   15609   15610
   15612   15613   15614   15602   15604   15605   15606   15609   15611   15612
   15600   15601   15607   15607   15607   15603   15604   15608   15609   15610
   15608   15605   15608   15609   15610   15611   15612   15613   15614   15615
   15616   15617   15606   15609   15610   15611   15612   15615   15616   15609
   15611       0       0   15610   15611   15612   15613   15614   15615   15616
   15618   15619   15620   15612   15613   15614   15615   15617   15618   15612
   15613   15615   15616   15617   15618   15619   15620   15621   15622   15623
   15614   15615   15616   15617   15618   15621   15622   15615   15617   15616
   15617   15618   15619   15620   15621   15622   15624   15618   15619   15620
   15621   15623   15624   15618   15619   15621   15622   15623   15624   15620
   15621   15622   15623   15624   15621   15623   15622   15623   15624   15624
   15624       0   15626   15627   15628   15629   15630   15631   15632   15633
   15634   15635   15636   15637   15638   15639   15640   15641   15642   15627
   15628   15629   15630   15631   15632   15633   15634   15635   15636   15643
   15628   15629   15630   15631   15632   15633   15634   15635   15637   15638
   15639   15643   15644   15629   15630   15631   15632   15633   15634   15638
   15640   15641   15642   15644   15645   15646   15647   15630   15631   15635
   15636   15637   15643   15635   15636   15632   15635   15636   15637   15638
   15639   15643   15633   15635   15637   15638   15639   15640   15644   15634
   15638   15639   15640   15641   15642   15644   15645   15646   15648   15649
   15650   15638   15640   15641   15642   15645   15647   15648   15636   15637
   15643   15643   15643   15639   15640   15644   15645   15646   15644   15641
   15644   15645   15646   15647   15648   15649   15650   15651   15652   15653
   15642   15645   15646   15647   15648   15651   15652   15645   15647       0
       0   15646   15647   15648   15649   15650   15651   15652   15654   15655
   15656   15648   15649   15650   15651   15653   15654   15648   15649   15651
   15652   15653   15654   15655   15656   15657   15658   15659   15650   15651
   15652   15653   15654   15657   15658   15651   15653   15652   15653   15654
   15655   15656   15657   15658   15660   15654   15655   15656   15657   15659
   15660   15654   15655   15657   15658   15659   15660   15656   15657   15658
   15659   15660   15657   15659   15658   15659   15660   15660   15660       0
   15662   15663   15664   15665   15666   15667   15668   15669   15670   15671
   15672   15673   15674   15675   15676   15677   15678   15663   15664   15665
   15666   15667   15668   15669   15670   15671   15672   15679   15664   15665
   15666   15667   15668   15669   15670   15671   15673   15674   15675   15679
   15680   15665   15666   15667   15668   15669   15670   15674   15676   15677
   15678   15680   15681   15682   15683   15666   15667   15671   15672   15673
   15679   15671   15672   15668   15671   15672   15673   15674   15675   15679
   15669   15671   15673   15674   15675   15676   15680   15670   15674   15675
   15676   15677   15678   15680   15681   15682   15684   15685   15686   15674
   15676   15677   15678   15681   15683   15684   15672   15673   15679   15679
   15679   15675   15676   15680   15681   15682   15680   15677   15680   15681
   15682   15683   15684   15685   15686   15687   15688   15689   15678   15681
   15682   15683   15684   15687   15688   15681   15683       0       0   15682
   15683   15684   15685   15686   15687   15688   15690   15691   15692   15684
   15685   15686   15687   15689   15690   15684   15685   15687   15688   15689
   15690   15691   15692   15693   15694   15695   15686   15687   15688   15689
   15690   15693   15694   15687   15689   15688   15689   15690   15691   15692
   15693   15694   15696   15690   15691   15692   15693   15695   15696   15690
   15691   15693   15694   15695   15696   15692   15693   15694   15695   15696
   15693   15695   15694   15695   15696   15696   15696       0   15698   15699
   15700   15701   15702   15703   15704   15705   15706   15707   15708   15709
   15710   15711   15712   15713   15714   15699   15700   15701   15702   15703
   15704   15705   15706   15707   15708   15715   15700   15701   15702   15703
   15704   15705   15706   15707   15709   15710   15711   15715   15716   15701
   15702   15703   15704   15705   15706   15710   15712   15713   15714   15716
   15717   15718   15719   15702   15703   15707   15708   15709   15715   15707
   15708   15704   15707   15708   15709   15710   15711   15715   15705   15707
   15709   15710   15711   15712   15716   15706   15710   15711   15712   15713
   15714   15716   15717   15718   15720   15721   15722   15710   15712   15713
   15714   15717   15719   15720   15708   15709   15715   15715   15715   15711
   15712   15716   15717   15718   15716   15713   15716   15717   15718   15719
   15720   15721   15722   15723   15724   15725   15714   15717   15718   15719
   15720   15723   15724   15717   15719       0       0   15718   15719   15720
   15721   15722   15723   15724   15726   15727   15728   15720   15721   15722
   15723   15725   15726   15720   15721   15723   15724   15725   15726   15727
   15728   15729   15730   15731   15722   15723   15724   15725   15726   15729
   15730   15723   15725   15724   15725   15726   15727   15728   15729   15730
   15732   15726   15727   15728   15729   15731   15732   15726   15727   15729
   15730   15731   15732   15728   15729   15730   15731   15732   15729   15731
   15730   15731   15732   15732   15732       0   15734   15735   15736   15737
   15738   15739   15740   15741   15742   15743   15744   15745   15746   15747
   15748   15749   15750   15735   15736   15737   15738   15739   15740   15741
   15742   15743   15744   15751   15736   15737   15738   15739   15740   15741
   15742   15743   15745   15746   15747   15751   15752   15737   15738   15739
   15740   15741   15742   15746   15748   15749   15750   15752   15753   15754
   15755   15738   15739   15743   15744   15745   15751   15743   15744   15740
   15743   15744   15745   15746   15747   15751   15741   15743   15745   15746
   15747   15748   15752   15742   15746   15747   15748   15749   15750   15752
   15753   15754   15756   15757   15758   15746   15748   15749   15750   15753
   15755   15756   15744   15745   15751   15751   15751   15747   15748   15752
   15753   15754   15752   15749   15752   15753   15754   15755   15756   15757
   15758   15759   15760   15761   15750   15753   15754   15755   15756   15759
   15760   15753   15755       0       0   15754   15755   15756   15757   15758
   15759   15760   15762   15763   15764   15756   15757   15758   15759   15761
   15762   15756   15757   15759   15760   15761   15762   15763   15764   15765
   15766   15767   15758   15759   15760   15761   15762   15765   15766   15759
   15761   15760   15761   15762   15763   15764   15765   15766   15768   15762
   15763   15764   15765   15767   15768   15762   15763   15765   15766   15767
   15768   15764   15765   15766   15767   15768   15765   15767   15766   15767
   15768   15768   15768       0   15770   15771   15772   15773   15774   15775
   15776   15777   15778   15779   15780   15781   15782   15783   15784   15785
   15786   15771   15772   15773   15774   15775   15776   15777   15778   15779
   15780   15787   15772   15773   15774   15775   15776   15777   15778   15779
   15781   15782   15783   15787   15788   15773   15774   15775   15776   15777
   15778   15782   15784   15785   15786   15788   15789   15790   15791   15774
   15775   15779   15780   15781   15787   15779   15780   15776   15779   15780
   15781   15782   15783   15787   15777   15779   15781   15782   15783   15784
   15788   15778   15782   15783   15784   15785   15786   15788   15789   15790
   15792   15793   15794   15782   15784   15785   15786   15789   15791   15792
   15780   15781   15787   15787   15787   15783   15784   15788   15789   15790
   15788   15785   15788   15789   15790   15791   15792   15793   15794   15795
   15796   15797   15786   15789   15790   15791   15792   15795   15796   15789
   15791       0       0   15790   15791   15792   15793   15794   15795   15796
   15798   15799   15800   15792   15793   15794   15795   15797   15798   15792
   15793   15795   15796   15797   15798   15799   15800   15801   15802   15803
   15794   15795   15796   15797   15798   15801   15802   15795   15797   15796
   15797   15798   15799   15800   15801   15802   15804   15798   15799   15800
   15801   15803   15804   15798   15799   15801   15802   15803   15804   15800
   15801   15802   15803   15804   15801   15803   15802   15803   15804   15804
   15804       0   15806   15807   15808   15809   15810   15811   15812   15813
   15814   15815   15816   15817   15818   15819   15820   15821   15822   15807
   15808   15809   15810   15811   15812   15813   15814   15815   15816   15823
   15808   15809   15810   15811   15812   15813   15814   15815   15817   15818
   15819   15823   15824   15809   15810   15811   15812   15813   15814   15818
   15820   15821   15822   15824   15825   15826   15827   15810   15811   15815
   15816   15817   15823   15815   15816   15812   15815   15816   15817   15818
   15819   15823   15813   15815   15817   15818   15819   15820   15824   15814
   15818   15819   15820   15821   15822   15824   15825   15826   15828   15829
   15830   15818   15820   15821   15822   15825   15827   15828   15816   15817
   15823   15823   15823   15819   15820   15824   15825   15826   15824   15821
   15824   15825   15826   15827   15828   15829   15830   15831   15832   15833
   15822   15825   15826   15827   15828   15831   15832   15825   15827       0
       0   15826   15827   15828   15829   15830   15831   15832   15834   15835
   15836   15828   15829   15830   15831   15833   15834   15828   15829   15831
   15832   15833   15834   15835   15836   15837   15838   15839   15830   15831
   15832   15833   15834   15837   15838   15831   15833   15832   15833   15834
   15835   15836   15837   15838   15840   15834   15835   15836   15837   15839
   15840   15834   15835   15837   15838   15839   15840   15836   15837   15838
   15839   15840   15837   15839   15838   15839   15840   15840   15840       0
   15842   15843   15844   15845   15846   15847   15848   15849   15850   15851
   15852   15853   15854   15855   15856   15857   15858   15843   15844   15845
   15846   15847   15848   15849   15850   15851   15852   15859   15844   15845
   15846   15847   15848   15849   15850   15851   15853   15854   15855   15859
   15860   15845   15846   15847   15848   15849   15850   15854   15856   15857
   15858   15860   15861   15862   15863   15846   15847   15851   15852   15853
   15859   15851   15852   15848   15851   15852   15853   15854   15855   15859
   15849   15851   15853   15854   15855   15856   15860   15850   15854   15855
   15856   15857   15858   15860   15861   15862   15864   15865   15866   15854
   15856   15857   15858   15861   15863   15864   15852   15853   15859   15859
   15859   15855   15856   15860   15861   15862   15860   15857   15860   15861
   15862   15863   15864   15865   15866   15867   15868   15869   15858   15861
   15862   15863   15864   15867   15868   15861   15863       0       0   15862
   15863   15864   15865   15866   15867   15868   15870   15871   15872   15864
   15865   15866   15867   15869   15870   15864   15865   15867   15868   15869
   15870   15871   15872   15873   15874   15875   15866   15867   15868   15869
   15870   15873   15874   15867   15869   15868   15869   15870   15871   15872
   15873   15874   15876   15870   15871   15872   15873   15875   15876   15870
   15871   15873   15874   15875   15876   15872   15873   15874   15875   15876
   15873   15875   15874   15875   15876   15876   15876       0   15878   15879
   15880   15881   15882   15883   15884   15885   15886   15887   15888   15889
   15890   15891   15892   15893   15894   15879   15880   15881   15882   15883
   15884   15885   15886   15887   15888   15895   15880   15881   15882   15883
   15884   15885   15886   15887   15889   15890   15891   15895   15896   15881
   15882   15883   15884   15885   15886   15890   15892   15893   15894   15896
   15897   15898   15899   15882   15883   15887   15888   15889   15895   15887
   15888   15884   15887   15888   15889   15890   15891   15895   15885   15887
   15889   15890   15891   15892   15896   15886   15890   15891   15892   15893
   15894   15896   15897   15898   15900   15901   15902   15890   15892   15893
   15894   15897   15899   15900   15888   15889   15895   15895   15895   15891
   15892   15896   15897   15898   15896   15893   15896   15897   15898   15899
   15900   15901   15902   15903   15904   15905   15894   15897   15898   15899
   15900   15903   15904   15897   15899       0       0   15898   15899   15900
   15901   15902   15903   15904   15906   15907   15908   15900   15901   15902
   15903   15905   15906   15900   15901   15903   15904   15905   15906   15907
   15908   15909   15910   15911   15902   15903   15904   15905   15906   15909
   15910   15903   15905   15904   15905   15906   15907   15908   15909   15910
   15912   15906   15907   15908   15909   15911   15912   15906   15907   15909
   15910   15911   15912   15908   15909   15910   15911   15912   15909   15911
   15910   15911   15912   15912   15912       0   15914   15915   15916   15917
   15918   15919   15920   15921   15922   15923   15924   15925   15926   15927
   15928   15929   15930   15915   15916   15917   15918   15919   15920   15921
   15922   15923   15924   15931   15916   15917   15918   15919   15920   15921
   15922   15923   15925   15926   15927   15931   15932   15917   15918   15919
   15920   15921   15922   15926   15928   15929   15930   15932   15933   15934
   15935   15918   15919   15923   15924   15925   15931   15923   15924   15920
   15923   15924   15925   15926   15927   15931   15921   15923   15925   15926
   15927   15928   15932   15922   15926   15927   15928   15929   15930   15932
   15933   15934   15936   15937   15938   15926   15928   15929   15930   15933
   15935   15936   15924   15925   15931   15931   15931   15927   15928   15932
   15933   15934   15932   15929   15932   15933   15934   15935   15936   15937
   15938   15939   15940   15941   15930   15933   15934   15935   15936   15939
   15940   15933   15935       0       0   15934   15935   15936   15937   15938
   15939   15940   15942   15943   15944   15936   15937   15938   15939   15941
   15942   15936   15937   15939   15940   15941   15942   15943   15944   15945
   15946   15947   15938   15939   15940   15941   15942   15945   15946   15939
   15941   15940   15941   15942   15943   15944   15945   15946   15948   15942
   15943   15944   15945   15947   15948   15942   15943   15945   15946   15947
   15948   15944   15945   15946   15947   15948   15945   15947   15946   15947
   15948   15948   15948       0   15950   15951   15952   15953   15954   15955
   15956   15957   15958   15959   15960   15961   15962   15963   15964   15965
   15966   15951   15952   15953   15954   15955   15956   15957   15958   15959
   15960   15967   15952   15953   15954   15955   15956   15957   15958   15959
   15961   15962   15963   15967   15968   15953   15954   15955   15956   15957
   15958   15962   15964   15965   15966   15968   15969   15970   15971   15954
   15955   15959   15960   15961   15967   15959   15960   15956   15959   15960
   15961   15962   15963   15967   15957   15959   15961   15962   15963   15964
   15968   15958   15962   15963   15964   15965   15966   15968   15969   15970
   15972   15973   15974   15962   15964   15965   15966   15969   15971   15972
   15960   15961   15967   15967   15967   15963   15964   15968   15969   15970
   15968   15965   15968   15969   15970   15971   15972   15973   15974   15975
   15976   15977   15966   15969   15970   15971   15972   15975   15976   15969
   15971       0       0   15970   15971   15972   15973   15974   15975   15976
   15978   15979   15980   15972   15973   15974   15975   15977   15978   15972
   15973   15975   15976   15977   15978   15979   15980   15981   15982   15983
   15974   15975   15976   15977   15978   15981   15982   15975   15977   15976
   15977   15978   15979   15980   15981   15982   15984   15978   15979   15980
   15981   15983   15984   15978   15979   15981   15982   15983   15984   15980
   15981   15982   15983   15984   15981   15983   15982   15983   15984   15984
   15984       0   15986   15987   15988   15989   15990   15991   15992   15993
   15994   15995   15996   15997   15998   15999   16000   16001   16002   15987
   15988   15989   15990   15991   15992   15993   15994   15995   15996   16003
   15988   15989   15990   15991   15992   15993   15994   15995   15997   15998
   15999   16003   16004   15989   15990   15991   15992   15993   15994   15998
   16000   16001   16002   16004   16005   16006   16007   15990   15991   15995
   15996   15997   16003   15995   15996   15992   15995   15996   15997   15998
   15999   16003   15993   15995   15997   15998   15999   16000   16004   15994
   15998   15999   16000   16001   16002   16004   16005   16006   16008   16009
   16010   15998   16000   16001   16002   16005   16007   16008   15996   15997
   16003   16003   16003   15999   16000   16004   16005   16006   16004   16001
   16004   16005   16006   16007   16008   16009   16010   16011   16012   16013
   16002   16005   16006   16007   16008   16011   16012   16005   16007       0
       0   16006   16007   16008   16009   16010   16011   16012   16014   16015
   16016   16008   16009   16010   16011   16013   16014   16008   16009   16011
   16012   16013   16014   16015   16016   16017   16018   16019   16010   16011
   16012   16013   16014   16017   16018   16011   16013   16012   16013   16014
   16015   16016   16017   16018   16020   16014   16015   16016   16017   16019
   16020   16014   16015   16017   16018   16019   16020   16016   16017   16018
   16019   16020   16017   16019   16018   16019   16020   16020   16020       0
   16022   16023   16024   16025   16026   16027   16028   16029   16030   16031
   16032   16033   16034   16035   16036   16037   16038   16023   16024   16025
   16026   16027   16028   16029   16030   16031   16032   16039   16024   16025
   16026   16027   16028   16029   16030   16031   16033   16034   16035   16039
   16040   16025   16026   16027   16028   16029   16030   16034   16036   16037
   16038   16040   16041   16042   16043   16026   16027   16031   16032   16033
   16039   16031   16032   16028   16031   16032   16033   16034   16035   16039
   16029   16031   16033   16034   16035   16036   16040   16030   16034   16035
   16036   16037   16038   16040   16041   16042   16044   16045   16046   16034
   16036   16037   16038   16041   16043   16044   16032   16033   16039   16039
   16039   16035   16036   16040   16041   16042   16040   16037   16040   16041
   16042   16043   16044   16045   16046   16047   16048   16049   16038   16041
   16042   16043   16044   16047   16048   16041   16043       0       0   16042
   16043   16044   16045   16046   16047   16048   16050   16051   16052   16044
   16045   16046   16047   16049   16050   16044   16045   16047   16048   16049
   16050   16051   16052   16053   16054   16055   16046   16047   16048   16049
   16050   16053   16054   16047   16049   16048   16049   16050   16051   16052
   16053   16054   16056   16050   16051   16052   16053   16055   16056   16050
   16051   16053   16054   16055   16056   16052   16053   16054   16055   16056
   16053   16055   16054   16055   16056   16056   16056       0   16058   16059
   16060   16061   16062   16063   16064   16065   16066   16067   16068   16069
   16070   16071   16072   16073   16074   16059   16060   16061   16062   16063
   16064   16065   16066   16067   16068   16075   16060   16061   16062   16063
   16064   16065   16066   16067   16069   16070   16071   16075   16076   16061
   16062   16063   16064   16065   16066   16070   16072   16073   16074   16076
   16077   16078   16079   16062   16063   16067   16068   16069   16075   16067
   16068   16064   16067   16068   16069   16070   16071   16075   16065   16067
   16069   16070   16071   16072   16076   16066   16070   16071   16072   16073
   16074   16076   16077   16078   16080   16081   16082   16070   16072   16073
   16074   16077   16079   16080   16068   16069   16075   16075   16075   16071
   16072   16076   16077   16078   16076   16073   16076   16077   16078   16079
   16080   16081   16082   16083   16084   16085   16074   16077   16078   16079
   16080   16083   16084   16077   16079       0       0   16078   16079   16080
   16081   16082   16083   16084   16086   16087   16088   16080   16081   16082
   16083   16085   16086   16080   16081   16083   16084   16085   16086   16087
   16088   16089   16090   16091   16082   16083   16084   16085   16086   16089
   16090   16083   16085   16084   16085   16086   16087   16088   16089   16090
   16092   16086   16087   16088   16089   16091   16092   16086   16087   16089
   16090   16091   16092   16088   16089   16090   16091   16092   16089   16091
   16090   16091   16092   16092   16092       0   16094   16095   16096   16097
   16098   16099   16100   16101   16102   16103   16104   16105   16106   16107
   16108   16109   16110   16095   16096   16097   16098   16099   16100   16101
   16102   16103   16104   16111   16096   16097   16098   16099   16100   16101
   16102   16103   16105   16106   16107   16111   16112   16097   16098   16099
   16100   16101   16102   16106   16108   16109   16110   16112   16113   16114
   16115   16098   16099   16103   16104   16105   16111   16103   16104   16100
   16103   16104   16105   16106   16107   16111   16101   16103   16105   16106
   16107   16108   16112   16102   16106   16107   16108   16109   16110   16112
   16113   16114   16116   16117   16118   16106   16108   16109   16110   16113
   16115   16116   16104   16105   16111   16111   16111   16107   16108   16112
   16113   16114   16112   16109   16112   16113   16114   16115   16116   16117
   16118   16119   16120   16121   16110   16113   16114   16115   16116   16119
   16120   16113   16115       0       0   16114   16115   16116   16117   16118
   16119   16120   16122   16123   16124   16116   16117   16118   16119   16121
   16122   16116   16117   16119   16120   16121   16122   16123   16124   16125
   16126   16127   16118   16119   16120   16121   16122   16125   16126   16119
   16121   16120   16121   16122   16123   16124   16125   16126   16128   16122
   16123   16124   16125   16127   16128   16122   16123   16125   16126   16127
   16128   16124   16125   16126   16127   16128   16125   16127   16126   16127
   16128   16128   16128       0   16130   16131   16132   16133   16134   16135
   16136   16137   16138   16139   16140   16141   16142   16143   16144   16145
   16146   16131   16132   16133   16134   16135   16136   16137   16138   16139
   16140   16147   16132   16133   16134   16135   16136   16137   16138   16139
   16141   16142   16143   16147   16148   16133   16134   16135   16136   16137
   16138   16142   16144   16145   16146   16148   16149   16150   16151   16134
   16135   16139   16140   16141   16147   16139   16140   16136   16139   16140
   16141   16142   16143   16147   16137   16139   16141   16142   16143   16144
   16148   16138   16142   16143   16144   16145   16146   16148   16149   16150
   16152   16153   16154   16142   16144   16145   16146   16149   16151   16152
   16140   16141   16147   16147   16147   16143   16144   16148   16149   16150
   16148   16145   16148   16149   16150   16151   16152   16153   16154   16155
   16156   16157   16146   16149   16150   16151   16152   16155   16156   16149
   16151       0       0   16150   16151   16152   16153   16154   16155   16156
   16158   16159   16160   16152   16153   16154   16155   16157   16158   16152
   16153   16155   16156   16157   16158   16159   16160   16161   16162   16163
   16154   16155   16156   16157   16158   16161   16162   16155   16157   16156
   16157   16158   16159   16160   16161   16162   16164   16158   16159   16160
   16161   16163   16164   16158   16159   16161   16162   16163   16164   16160
   16161   16162   16163   16164   16161   16163   16162   16163   16164   16164
   16164       0   16166   16167   16168   16169   16170   16171   16172   16173
   16174   16175   16176   16177   16178   16179   16180   16181   16182   16167
   16168   16169   16170   16171   16172   16173   16174   16175   16176   16183
   16168   16169   16170   16171   16172   16173   16174   16175   16177   16178
   16179   16183   16184   16169   16170   16171   16172   16173   16174   16178
   16180   16181   16182   16184   16185   16186   16187   16170   16171   16175
   16176   16177   16183   16175   16176   16172   16175   16176   16177   16178
   16179   16183   16173   16175   16177   16178   16179   16180   16184   16174
   16178   16179   16180   16181   16182   16184   16185   16186   16188   16189
   16190   16178   16180   16181   16182   16185   16187   16188   16176   16177
   16183   16183   16183   16179   16180   16184   16185   16186   16184   16181
   16184   16185   16186   16187   16188   16189   16190   16191   16192   16193
   16182   16185   16186   16187   16188   16191   16192   16185   16187       0
       0   16186   16187   16188   16189   16190   16191   16192   16194   16195
   16196   16188   16189   16190   16191   16193   16194   16188   16189   16191
   16192   16193   16194   16195   16196   16197   16198   16199   16190   16191
   16192   16193   16194   16197   16198   16191   16193   16192   16193   16194
   16195   16196   16197   16198   16200   16194   16195   16196   16197   16199
   16200   16194   16195   16197   16198   16199   16200   16196   16197   16198
   16199   16200   16197   16199   16198   16199   16200   16200   16200       0
   16202   16203   16204   16205   16206   16207   16208   16209   16210   16211
   16212   16213   16214   16215   16216   16217   16218   16203   16204   16205
   16206   16207   16208   16209   16210   16211   16212   16219   16204   16205
   16206   16207   16208   16209   16210   16211   16213   16214   16215   16219
   16220   16205   16206   16207   16208   16209   16210   16214   16216   16217
   16218   16220   16221   16222   16223   16206   16207   16211   16212   16213
   16219   16211   16212   16208   16211   16212   16213   16214   16215   16219
   16209   16211   16213   16214   16215   16216   16220   16210   16214   16215
   16216   16217   16218   16220   16221   16222   16224   16225   16226   16214
   16216   16217   16218   16221   16223   16224   16212   16213   16219   16219
   16219   16215   16216   16220   16221   16222   16220   16217   16220   16221
   16222   16223   16224   16225   16226   16227   16228   16229   16218   16221
   16222   16223   16224   16227   16228   16221   16223       0       0   16222
   16223   16224   16225   16226   16227   16228   16230   16231   16232   16224
   16225   16226   16227   16229   16230   16224   16225   16227   16228   16229
   16230   16231   16232   16233   16234   16235   16226   16227   16228   16229
   16230   16233   16234   16227   16229   16228   16229   16230   16231   16232
   16233   16234   16236   16230   16231   16232   16233   16235   16236   16230
   16231   16233   16234   16235   16236   16232   16233   16234   16235   16236
   16233   16235   16234   16235   16236   16236   16236       0   16238   16239
   16240   16241   16242   16243   16244   16245   16246   16247   16248   16249
   16250   16251   16252   16253   16254   16239   16240   16241   16242   16243
   16244   16245   16246   16247   16248   16255   16240   16241   16242   16243
   16244   16245   16246   16247   16249   16250   16251   16255   16256   16241
   16242   16243   16244   16245   16246   16250   16252   16253   16254   16256
   16257   16258   16259   16242   16243   16247   16248   16249   16255   16247
   16248   16244   16247   16248   16249   16250   16251   16255   16245   16247
   16249   16250   16251   16252   16256   16246   16250   16251   16252   16253
   16254   16256   16257   16258   16260   16261   16262   16250   16252   16253
   16254   16257   16259   16260   16248   16249   16255   16255   16255   16251
   16252   16256   16257   16258   16256   16253   16256   16257   16258   16259
   16260   16261   16262   16263   16264   16265   16254   16257   16258   16259
   16260   16263   16264   16257   16259       0       0   16258   16259   16260
   16261   16262   16263   16264   16266   16267   16268   16260   16261   16262
   16263   16265   16266   16260   16261   16263   16264   16265   16266   16267
   16268   16269   16270   16271   16262   16263   16264   16265   16266   16269
   16270   16263   16265   16264   16265   16266   16267   16268   16269   16270
   16272   16266   16267   16268   16269   16271   16272   16266   16267   16269
   16270   16271   16272   16268   16269   16270   16271   16272   16269   16271
   16270   16271   16272   16272   16272       0   16274   16275   16276   16277
   16278   16279   16280   16281   16282   16283   16284   16285   16286   16287
   16288   16289   16290   16275   16276   16277   16278   16279   16280   16281
   16282   16283   16284   16291   16276   16277   16278   16279   16280   16281
   16282   16283   16285   16286   16287   16291   16292   16277   16278   16279
   16280   16281   16282   16286   16288   16289   16290   16292   16293   16294
   16295   16278   16279   16283   16284   16285   16291   16283   16284   16280
   16283   16284   16285   16286   16287   16291   16281   16283   16285   16286
   16287   16288   16292   16282   16286   16287   16288   16289   16290   16292
   16293   16294   16296   16297   16298   16286   16288   16289   16290   16293
   16295   16296   16284   16285   16291   16291   16291   16287   16288   16292
   16293   16294   16292   16289   16292   16293   16294   16295   16296   16297
   16298   16299   16300   16301   16290   16293   16294   16295   16296   16299
   16300   16293   16295       0       0   16294   16295   16296   16297   16298
   16299   16300   16302   16303   16304   16296   16297   16298   16299   16301
   16302   16296   16297   16299   16300   16301   16302   16303   16304   16305
   16306   16307   16298   16299   16300   16301   16302   16305   16306   16299
   16301   16300   16301   16302   16303   16304   16305   16306   16308   16302
   16303   16304   16305   16307   16308   16302   16303   16305   16306   16307
   16308   16304   16305   16306   16307   16308   16305   16307   16306   16307
   16308   16308   16308       0   16310   16311   16312   16313   16314   16315
   16316   16317   16318   16319   16320   16321   16322   16323   16324   16325
   16326   16311   16312   16313   16314   16315   16316   16317   16318   16319
   16320   16327   16312   16313   16314   16315   16316   16317   16318   16319
   16321   16322   16323   16327   16328   16313   16314   16315   16316   16317
   16318   16322   16324   16325   16326   16328   16329   16330   16331   16314
   16315   16319   16320   16321   16327   16319   16320   16316   16319   16320
   16321   16322   16323   16327   16317   16319   16321   16322   16323   16324
   16328   16318   16322   16323   16324   16325   16326   16328   16329   16330
   16332   16333   16334   16322   16324   16325   16326   16329   16331   16332
   16320   16321   16327   16327   16327   16323   16324   16328   16329   16330
   16328   16325   16328   16329   16330   16331   16332   16333   16334   16335
   16336   16337   16326   16329   16330   16331   16332   16335   16336   16329
   16331       0       0   16330   16331   16332   16333   16334   16335   16336
   16338   16339   16340   16332   16333   16334   16335   16337   16338   16332
   16333   16335   16336   16337   16338   16339   16340   16341   16342   16343
   16334   16335   16336   16337   16338   16341   16342   16335   16337   16336
   16337   16338   16339   16340   16341   16342   16344   16338   16339   16340
   16341   16343   16344   16338   16339   16341   16342   16343   16344   16340
   16341   16342   16343   16344   16341   16343   16342   16343   16344   16344
   16344       0   16346   16347   16348   16349   16350   16351   16352   16353
   16354   16355   16356   16357   16358   16359   16360   16361   16362   16347
   16348   16349   16350   16351   16352   16353   16354   16355   16356   16363
   16348   16349   16350   16351   16352   16353   16354   16355   16357   16358
   16359   16363   16364   16349   16350   16351   16352   16353   16354   16358
   16360   16361   16362   16364   16365   16366   16367   16350   16351   16355
   16356   16357   16363   16355   16356   16352   16355   16356   16357   16358
   16359   16363   16353   16355   16357   16358   16359   16360   16364   16354
   16358   16359   16360   16361   16362   16364   16365   16366   16368   16369
   16370   16358   16360   16361   16362   16365   16367   16368   16356   16357
   16363   16363   16363   16359   16360   16364   16365   16366   16364   16361
   16364   16365   16366   16367   16368   16369   16370   16371   16372   16373
   16362   16365   16366   16367   16368   16371   16372   16365   16367       0
       0   16366   16367   16368   16369   16370   16371   16372   16374   16375
   16376   16368   16369   16370   16371   16373   16374   16368   16369   16371
   16372   16373   16374   16375   16376   16377   16378   16379   16370   16371
   16372   16373   16374   16377   16378   16371   16373   16372   16373   16374
   16375   16376   16377   16378   16380   16374   16375   16376   16377   16379
   16380   16374   16375   16377   16378   16379   16380   16376   16377   16378
   16379   16380   16377   16379   16378   16379   16380   16380   16380       0
   16382   16383   16384   16385   16386   16387   16388   16389   16390   16391
   16392   16393   16394   16395   16396   16397   16398   16383   16384   16385
   16386   16387   16388   16389   16390   16391   16392   16399   16384   16385
   16386   16387   16388   16389   16390   16391   16393   16394   16395   16399
   16400   16385   16386   16387   16388   16389   16390   16394   16396   16397
   16398   16400   16401   16402   16403   16386   16387   16391   16392   16393
   16399   16391   16392   16388   16391   16392   16393   16394   16395   16399
   16389   16391   16393   16394   16395   16396   16400   16390   16394   16395
   16396   16397   16398   16400   16401   16402   16404   16405   16406   16394
   16396   16397   16398   16401   16403   16404   16392   16393   16399   16399
   16399   16395   16396   16400   16401   16402   16400   16397   16400   16401
   16402   16403   16404   16405   16406   16407   16408   16409   16398   16401
   16402   16403   16404   16407   16408   16401   16403       0       0   16402
   16403   16404   16405   16406   16407   16408   16410   16411   16412   16404
   16405   16406   16407   16409   16410   16404   16405   16407   16408   16409
   16410   16411   16412   16413   16414   16415   16406   16407   16408   16409
   16410   16413   16414   16407   16409   16408   16409   16410   16411   16412
   16413   16414   16416   16410   16411   16412   16413   16415   16416   16410
   16411   16413   16414   16415   16416   16412   16413   16414   16415   16416
   16413   16415   16414   16415   16416   16416   16416       0   16418   16419
   16420   16421   16422   16423   16424   16425   16426   16427   16428   16429
   16430   16431   16432   16433   16434   16419   16420   16421   16422   16423
   16424   16425   16426   16427   16428   16435   16420   16421   16422   16423
   16424   16425   16426   16427   16429   16430   16431   16435   16436   16421
   16422   16423   16424   16425   16426   16430   16432   16433   16434   16436
   16437   16438   16439   16422   16423   16427   16428   16429   16435   16427
   16428   16424   16427   16428   16429   16430   16431   16435   16425   16427
   16429   16430   16431   16432   16436   16426   16430   16431   16432   16433
   16434   16436   16437   16438   16440   16441   16442   16430   16432   16433
   16434   16437   16439   16440   16428   16429   16435   16435   16435   16431
   16432   16436   16437   16438   16436   16433   16436   16437   16438   16439
   16440   16441   16442   16443   16444   16445   16434   16437   16438   16439
   16440   16443   16444   16437   16439       0       0   16438   16439   16440
   16441   16442   16443   16444   16446   16447   16448   16440   16441   16442
   16443   16445   16446   16440   16441   16443   16444   16445   16446   16447
   16448   16449   16450   16451   16442   16443   16444   16445   16446   16449
   16450   16443   16445   16444   16445   16446   16447   16448   16449   16450
   16452   16446   16447   16448   16449   16451   16452   16446   16447   16449
   16450   16451   16452   16448   16449   16450   16451   16452   16449   16451
   16450   16451   16452   16452   16452       0   16454   16455   16456   16457
   16458   16459   16460   16461   16462   16463   16464   16465   16466   16467
   16468   16469   16470   16455   16456   16457   16458   16459   16460   16461
   16462   16463   16464   16471   16456   16457   16458   16459   16460   16461
   16462   16463   16465   16466   16467   16471   16472   16457   16458   16459
   16460   16461   16462   16466   16468   16469   16470   16472   16473   16474
   16475   16458   16459   16463   16464   16465   16471   16463   16464   16460
   16463   16464   16465   16466   16467   16471   16461   16463   16465   16466
   16467   16468   16472   16462   16466   16467   16468   16469   16470   16472
   16473   16474   16476   16477   16478   16466   16468   16469   16470   16473
   16475   16476   16464   16465   16471   16471   16471   16467   16468   16472
   16473   16474   16472   16469   16472   16473   16474   16475   16476   16477
   16478   16479   16480   16481   16470   16473   16474   16475   16476   16479
   16480   16473   16475       0       0   16474   16475   16476   16477   16478
   16479   16480   16482   16483   16484   16476   16477   16478   16479   16481
   16482   16476   16477   16479   16480   16481   16482   16483   16484   16485
   16486   16487   16478   16479   16480   16481   16482   16485   16486   16479
   16481   16480   16481   16482   16483   16484   16485   16486   16488   16482
   16483   16484   16485   16487   16488   16482   16483   16485   16486   16487
   16488   16484   16485   16486   16487   16488   16485   16487   16486   16487
   16488   16488   16488       0   16490   16491   16492   16493   16494   16495
   16496   16497   16498   16499   16500   16501   16502   16503   16504   16505
   16506   16491   16492   16493   16494   16495   16496   16497   16498   16499
   16500   16507   16492   16493   16494   16495   16496   16497   16498   16499
   16501   16502   16503   16507   16508   16493   16494   16495   16496   16497
   16498   16502   16504   16505   16506   16508   16509   16510   16511   16494
   16495   16499   16500   16501   16507   16499   16500   16496   16499   16500
   16501   16502   16503   16507   16497   16499   16501   16502   16503   16504
   16508   16498   16502   16503   16504   16505   16506   16508   16509   16510
   16512   16513   16514   16502   16504   16505   16506   16509   16511   16512
   16500   16501   16507   16507   16507   16503   16504   16508   16509   16510
   16508   16505   16508   16509   16510   16511   16512   16513   16514   16515
   16516   16517   16506   16509   16510   16511   16512   16515   16516   16509
   16511       0       0   16510   16511   16512   16513   16514   16515   16516
   16518   16519   16520   16512   16513   16514   16515   16517   16518   16512
   16513   16515   16516   16517   16518   16519   16520   16521   16522   16523
   16514   16515   16516   16517   16518   16521   16522   16515   16517   16516
   16517   16518   16519   16520   16521   16522   16524   16518   16519   16520
   16521   16523   16524   16518   16519   16521   16522   16523   16524   16520
   16521   16522   16523   16524   16521   16523   16522   16523   16524   16524
   16524       0   16526   16527   16528   16529   16530   16531   16532   16533
   16534   16535   16536   16537   16538   16539   16540   16541   16542   16527
   16528   16529   16530   16531   16532   16533   16534   16535   16536   16543
   16528   16529   16530   16531   16532   16533   16534   16535   16537   16538
   16539   16543   16544   16529   16530   16531   16532   16533   16534   16538
   16540   16541   16542   16544   16545   16546   16547   16530   16531   16535
   16536   16537   16543   16535   16536   16532   16535   16536   16537   16538
   16539   16543   16533   16535   16537   16538   16539   16540   16544   16534
   16538   16539   16540   16541   16542   16544   16545   16546   16548   16549
   16550   16538   16540   16541   16542   16545   16547   16548   16536   16537
   16543   16543   16543   16539   16540   16544   16545   16546   16544   16541
   16544   16545   16546   16547   16548   16549   16550   16551   16552   16553
   16542   16545   16546   16547   16548   16551   16552   16545   16547       0
       0   16546   16547   16548   16549   16550   16551   16552   16554   16555
   16556   16548   16549   16550   16551   16553   16554   16548   16549   16551
   16552   16553   16554   16555   16556   16557   16558   16559   16550   16551
   16552   16553   16554   16557   16558   16551   16553   16552   16553   16554
   16555   16556   16557   16558   16560   16554   16555   16556   16557   16559
   16560   16554   16555   16557   16558   16559   16560   16556   16557   16558
   16559   16560   16557   16559   16558   16559   16560   16560   16560       0
   16562   16563   16564   16565   16566   16567   16568   16569   16570   16571
   16572   16573   16574   16575   16576   16577   16578   16563   16564   16565
   16566   16567   16568   16569   16570   16571   16572   16579   16564   16565
   16566   16567   16568   16569   16570   16571   16573   16574   16575   16579
   16580   16565   16566   16567   16568   16569   16570   16574   16576   16577
   16578   16580   16581   16582   16583   16566   16567   16571   16572   16573
   16579   16571   16572   16568   16571   16572   16573   16574   16575   16579
   16569   16571   16573   16574   16575   16576   16580   16570   16574   16575
   16576   16577   16578   16580   16581   16582   16584   16585   16586   16574
   16576   16577   16578   16581   16583   16584   16572   16573   16579   16579
   16579   16575   16576   16580   16581   16582   16580   16577   16580   16581
   16582   16583   16584   16585   16586   16587   16588   16589   16578   16581
   16582   16583   16584   16587   16588   16581   16583       0       0   16582
   16583   16584   16585   16586   16587   16588   16590   16591   16592   16584
   16585   16586   16587   16589   16590   16584   16585   16587   16588   16589
   16590   16591   16592   16593   16594   16595   16586   16587   16588   16589
   16590   16593   16594   16587   16589   16588   16589   16590   16591   16592
   16593   16594   16596   16590   16591   16592   16593   16595   16596   16590
   16591   16593   16594   16595   16596   16592   16593   16594   16595   16596
   16593   16595   16594   16595   16596   16596   16596       0   16598   16599
   16600   16601   16602   16603   16604   16605   16606   16607   16608   16609
   16610   16611   16612   16613   16614   16599   16600   16601   16602   16603
   16604   16605   16606   16607   16608   16615   16600   16601   16602   16603
   16604   16605   16606   16607   16609   16610   16611   16615   16616   16601
   16602   16603   16604   16605   16606   16610   16612   16613   16614   16616
   16617   16618   16619   16602   16603   16607   16608   16609   16615   16607
   16608   16604   16607   16608   16609   16610   16611   16615   16605   16607
   16609   16610   16611   16612   16616   16606   16610   16611   16612   16613
   16614   16616   16617   16618   16620   16621   16622   16610   16612   16613
   16614   16617   16619   16620   16608   16609   16615   16615   16615   16611
   16612   16616   16617   16618   16616   16613   16616   16617   16618   16619
   16620   16621   16622   16623   16624   16625   16614   16617   16618   16619
   16620   16623   16624   16617   16619       0       0   16618   16619   16620
   16621   16622   16623   16624   16626   16627   16628   16620   16621   16622
   16623   16625   16626   16620   16621   16623   16624   16625   16626   16627
   16628   16629   16630   16631   16622   16623   16624   16625   16626   16629
   16630   16623   16625   16624   16625   16626   16627   16628   16629   16630
   16632   16626   16627   16628   16629   16631   16632   16626   16627   16629
   16630   16631   16632   16628   16629   16630   16631   16632   16629   16631
   16630   16631   16632   16632   16632       0   16634   16635   16636   16637
   16638   16639   16640   16641   16642   16643   16644   16645   16646   16647
   16648   16649   16650   16635   16636   16637   16638   16639   16640   16641
   16642   16643   16644   16651   16636   16637   16638   16639   16640   16641
   16642   16643   16645   16646   16647   16651   16652   16637   16638   16639
   16640   16641   16642   16646   16648   16649   16650   16652   16653   16654
   16655   16638   16639   16643   16644   16645   16651   16643   16644   16640
   16643   16644   16645   16646   16647   16651   16641   16643   16645   16646
   16647   16648   16652   16642   16646   16647   16648   16649   16650   16652
   16653   16654   16656   16657   16658   16646   16648   16649   16650   16653
   16655   16656   16644   16645   16651   16651   16651   16647   16648   16652
   16653   16654   16652   16649   16652   16653   16654   16655   16656   16657
   16658   16659   16660   16661   16650   16653   16654   16655   16656   16659
   16660   16653   16655       0       0   16654   16655   16656   16657   16658
   16659   16660   16662   16663   16664   16656   16657   16658   16659   16661
   16662   16656   16657   16659   16660   16661   16662   16663   16664   16665
   16666   16667   16658   16659   16660   16661   16662   16665   16666   16659
   16661   16660   16661   16662   16663   16664   16665   16666   16668   16662
   16663   16664   16665   16667   16668   16662   16663   16665   16666   16667
   16668   16664   16665   16666   16667   16668   16665   16667   16666   16667
   16668   16668   16668       0   16670   16671   16672   16673   16674   16675
   16676   16677   16678   16679   16680   16681   16682   16683   16684   16685
   16686   16671   16672   16673   16674   16675   16676   16677   16678   16679
   16680   16687   16672   16673   16674   16675   16676   16677   16678   16679
   16681   16682   16683   16687   16688   16673   16674   16675   16676   16677
   16678   16682   16684   16685   16686   16688   16689   16690   16691   16674
   16675   16679   16680   16681   16687   16679   16680   16676   16679   16680
   16681   16682   16683   16687   16677   16679   16681   16682   16683   16684
   16688   16678   16682   16683   16684   16685   16686   16688   16689   16690
   16692   16693   16694   16682   16684   16685   16686   16689   16691   16692
   16680   16681   16687   16687   16687   16683   16684   16688   16689   16690
   16688   16685   16688   16689   16690   16691   16692   16693   16694   16695
   16696   16697   16686   16689   16690   16691   16692   16695   16696   16689
   16691       0       0   16690   16691   16692   16693   16694   16695   16696
   16698   16699   16700   16692   16693   16694   16695   16697   16698   16692
   16693   16695   16696   16697   16698   16699   16700   16701   16702   16703
   16694   16695   16696   16697   16698   16701   16702   16695   16697   16696
   16697   16698   16699   16700   16701   16702   16704   16698   16699   16700
   16701   16703   16704   16698   16699   16701   16702   16703   16704   16700
   16701   16702   16703   16704   16701   16703   16702   16703   16704   16704
   16704       0   16706   16707   16708   16709   16710   16711   16712   16713
   16714   16715   16716   16717   16718   16719   16720   16721   16722   16707
   16708   16709   16710   16711   16712   16713   16714   16715   16716   16723
   16708   16709   16710   16711   16712   16713   16714   16715   16717   16718
   16719   16723   16724   16709   16710   16711   16712   16713   16714   16718
   16720   16721   16722   16724   16725   16726   16727   16710   16711   16715
   16716   16717   16723   16715   16716   16712   16715   16716   16717   16718
   16719   16723   16713   16715   16717   16718   16719   16720   16724   16714
   16718   16719   16720   16721   16722   16724   16725   16726   16728   16729
   16730   16718   16720   16721   16722   16725   16727   16728   16716   16717
   16723   16723   16723   16719   16720   16724   16725   16726   16724   16721
   16724   16725   16726   16727   16728   16729   16730   16731   16732   16733
   16722   16725   16726   16727   16728   16731   16732   16725   16727       0
       0   16726   16727   16728   16729   16730   16731   16732   16734   16735
   16736   16728   16729   16730   16731   16733   16734   16728   16729   16731
   16732   16733   16734   16735   16736   16737   16738   16739   16730   16731
   16732   16733   16734   16737   16738   16731   16733   16732   16733   16734
   16735   16736   16737   16738   16740   16734   16735   16736   16737   16739
   16740   16734   16735   16737   16738   16739   16740   16736   16737   16738
   16739   16740   16737   16739   16738   16739   16740   16740   16740       0
   16742   16743   16744   16745   16746   16747   16748   16749   16750   16751
   16752   16753   16754   16755   16756   16757   16758   16743   16744   16745
   16746   16747   16748   16749   16750   16751   16752   16759   16744   16745
   16746   16747   16748   16749   16750   16751   16753   16754   16755   16759
   16760   16745   16746   16747   16748   16749   16750   16754   16756   16757
   16758   16760   16761   16762   16763   16746   16747   16751   16752   16753
   16759   16751   16752   16748   16751   16752   16753   16754   16755   16759
   16749   16751   16753   16754   16755   16756   16760   16750   16754   16755
   16756   16757   16758   16760   16761   16762   16764   16765   16766   16754
   16756   16757   16758   16761   16763   16764   16752   16753   16759   16759
   16759   16755   16756   16760   16761   16762   16760   16757   16760   16761
   16762   16763   16764   16765   16766   16767   16768   16769   16758   16761
   16762   16763   16764   16767   16768   16761   16763       0       0   16762
   16763   16764   16765   16766   16767   16768   16770   16771   16772   16764
   16765   16766   16767   16769   16770   16764   16765   16767   16768   16769
   16770   16771   16772   16773   16774   16775   16766   16767   16768   16769
   16770   16773   16774   16767   16769   16768   16769   16770   16771   16772
   16773   16774   16776   16770   16771   16772   16773   16775   16776   16770
   16771   16773   16774   16775   16776   16772   16773   16774   16775   16776
   16773   16775   16774   16775   16776   16776   16776       0   16778   16779
   16780   16781   16782   16783   16784   16785   16786   16787   16788   16789
   16790   16791   16792   16793   16794   16779   16780   16781   16782   16783
   16784   16785   16786   16787   16788   16795   16780   16781   16782   16783
   16784   16785   16786   16787   16789   16790   16791   16795   16796   16781
   16782   16783   16784   16785   16786   16790   16792   16793   16794   16796
   16797   16798   16799   16782   16783   16787   16788   16789   16795   16787
   16788   16784   16787   16788   16789   16790   16791   16795   16785   16787
   16789   16790   16791   16792   16796   16786   16790   16791   16792   16793
   16794   16796   16797   16798   16800   16801   16802   16790   16792   16793
   16794   16797   16799   16800   16788   16789   16795   16795   16795   16791
   16792   16796   16797   16798   16796   16793   16796   16797   16798   16799
   16800   16801   16802   16803   16804   16805   16794   16797   16798   16799
   16800   16803   16804   16797   16799       0       0   16798   16799   16800
   16801   16802   16803   16804   16806   16807   16808   16800   16801   16802
   16803   16805   16806   16800   16801   16803   16804   16805   16806   16807
   16808   16809   16810   16811   16802   16803   16804   16805   16806   16809
   16810   16803   16805   16804   16805   16806   16807   16808   16809   16810
   16812   16806   16807   16808   16809   16811   16812   16806   16807   16809
   16810   16811   16812   16808   16809   16810   16811   16812   16809   16811
   16810   16811   16812   16812   16812       0   16814   16815   16816   16817
   16818   16819   16820   16821   16822   16823   16824   16825   16826   16827
   16828   16829   16830   16815   16816   16817   16818   16819   16820   16821
   16822   16823   16824   16831   16816   16817   16818   16819   16820   16821
   16822   16823   16825   16826   16827   16831   16832   16817   16818   16819
   16820   16821   16822   16826   16828   16829   16830   16832   16833   16834
   16835   16818   16819   16823   16824   16825   16831   16823   16824   16820
   16823   16824   16825   16826   16827   16831   16821   16823   16825   16826
   16827   16828   16832   16822   16826   16827   16828   16829   16830   16832
   16833   16834   16836   16837   16838   16826   16828   16829   16830   16833
   16835   16836   16824   16825   16831   16831   16831   16827   16828   16832
   16833   16834   16832   16829   16832   16833   16834   16835   16836   16837
   16838   16839   16840   16841   16830   16833   16834   16835   16836   16839
   16840   16833   16835       0       0   16834   16835   16836   16837   16838
   16839   16840   16842   16843   16844   16836   16837   16838   16839   16841
   16842   16836   16837   16839   16840   16841   16842   16843   16844   16845
   16846   16847   16838   16839   16840   16841   16842   16845   16846   16839
   16841   16840   16841   16842   16843   16844   16845   16846   16848   16842
   16843   16844   16845   16847   16848   16842   16843   16845   16846   16847
   16848   16844   16845   16846   16847   16848   16845   16847   16846   16847
   16848   16848   16848       0   16850   16851   16852   16853   16854   16855
   16856   16857   16858   16859   16860   16861   16862   16863   16864   16865
   16866   16851   16852   16853   16854   16855   16856   16857   16858   16859
   16860   16867   16852   16853   16854   16855   16856   16857   16858   16859
   16861   16862   16863   16867   16868   16853   16854   16855   16856   16857
   16858   16862   16864   16865   16866   16868   16869   16870   16871   16854
   16855   16859   16860   16861   16867   16859   16860   16856   16859   16860
   16861   16862   16863   16867   16857   16859   16861   16862   16863   16864
   16868   16858   16862   16863   16864   16865   16866   16868   16869   16870
   16872   16873   16874   16862   16864   16865   16866   16869   16871   16872
   16860   16861   16867   16867   16867   16863   16864   16868   16869   16870
   16868   16865   16868   16869   16870   16871   16872   16873   16874   16875
   16876   16877   16866   16869   16870   16871   16872   16875   16876   16869
   16871       0       0   16870   16871   16872   16873   16874   16875   16876
   16878   16879   16880   16872   16873   16874   16875   16877   16878   16872
   16873   16875   16876   16877   16878   16879   16880   16881   16882   16883
   16874   16875   16876   16877   16878   16881   16882   16875   16877   16876
   16877   16878   16879   16880   16881   16882   16884   16878   16879   16880
   16881   16883   16884   16878   16879   16881   16882   16883   16884   16880
   16881   16882   16883   16884   16881   16883   16882   16883   16884   16884
   16884       0   16886   16887   16888   16889   16890   16891   16892   16893
   16894   16895   16896   16897   16898   16899   16900   16901   16902   16887
   16888   16889   16890   16891   16892   16893   16894   16895   16896   16903
   16888   16889   16890   16891   16892   16893   16894   16895   16897   16898
   16899   16903   16904   16889   16890   16891   16892   16893   16894   16898
   16900   16901   16902   16904   16905   16906   16907   16890   16891   16895
   16896   16897   16903   16895   16896   16892   16895   16896   16897   16898
   16899   16903   16893   16895   16897   16898   16899   16900   16904   16894
   16898   16899   16900   16901   16902   16904   16905   16906   16908   16909
   16910   16898   16900   16901   16902   16905   16907   16908   16896   16897
   16903   16903   16903   16899   16900   16904   16905   16906   16904   16901
   16904   16905   16906   16907   16908   16909   16910   16911   16912   16913
   16902   16905   16906   16907   16908   16911   16912   16905   16907       0
       0   16906   16907   16908   16909   16910   16911   16912   16914   16915
   16916   16908   16909   16910   16911   16913   16914   16908   16909   16911
   16912   16913   16914   16915   16916   16917   16918   16919   16910   16911
   16912   16913   16914   16917   16918   16911   16913   16912   16913   16914
   16915   16916   16917   16918   16920   16914   16915   16916   16917   16919
   16920   16914   16915   16917   16918   16919   16920   16916   16917   16918
   16919   16920   16917   16919   16918   16919   16920   16920   16920       0
   16922   16923   16924   16925   16926   16927   16928   16929   16930   16931
   16932   16933   16934   16935   16936   16937   16938   16923   16924   16925
   16926   16927   16928   16929   16930   16931   16932   16939   16924   16925
   16926   16927   16928   16929   16930   16931   16933   16934   16935   16939
   16940   16925   16926   16927   16928   16929   16930   16934   16936   16937
   16938   16940   16941   16942   16943   16926   16927   16931   16932   16933
   16939   16931   16932   16928   16931   16932   16933   16934   16935   16939
   16929   16931   16933   16934   16935   16936   16940   16930   16934   16935
   16936   16937   16938   16940   16941   16942   16944   16945   16946   16934
   16936   16937   16938   16941   16943   16944   16932   16933   16939   16939
   16939   16935   16936   16940   16941   16942   16940   16937   16940   16941
   16942   16943   16944   16945   16946   16947   16948   16949   16938   16941
   16942   16943   16944   16947   16948   16941   16943       0       0   16942
   16943   16944   16945   16946   16947   16948   16950   16951   16952   16944
   16945   16946   16947   16949   16950   16944   16945   16947   16948   16949
   16950   16951   16952   16953   16954   16955   16946   16947   16948   16949
   16950   16953   16954   16947   16949   16948   16949   16950   16951   16952
   16953   16954   16956   16950   16951   16952   16953   16955   16956   16950
   16951   16953   16954   16955   16956   16952   16953   16954   16955   16956
   16953   16955   16954   16955   16956   16956   16956       0   16958   16959
   16960   16961   16962   16963   16964   16965   16966   16967   16968   16969
   16970   16971   16972   16973   16974   16959   16960   16961   16962   16963
   16964   16965   16966   16967   16968   16975   16960   16961   16962   16963
   16964   16965   16966   16967   16969   16970   16971   16975   16976   16961
   16962   16963   16964   16965   16966   16970   16972   16973   16974   16976
   16977   16978   16979   16962   16963   16967   16968   16969   16975   16967
   16968   16964   16967   16968   16969   16970   16971   16975   16965   16967
   16969   16970   16971   16972   16976   16966   16970   16971   16972   16973
   16974   16976   16977   16978   16980   16981   16982   16970   16972   16973
   16974   16977   16979   16980   16968   16969   16975   16975   16975   16971
   16972   16976   16977   16978   16976   16973   16976   16977   16978   16979
   16980   16981   16982   16983   16984   16985   16974   16977   16978   16979
   16980   16983   16984   16977   16979       0       0   16978   16979   16980
   16981   16982   16983   16984   16986   16987   16988   16980   16981   16982
   16983   16985   16986   16980   16981   16983   16984   16985   16986   16987
   16988   16989   16990   16991   16982   16983   16984   16985   16986   16989
   16990   16983   16985   16984   16985   16986   16987   16988   16989   16990
   16992   16986   16987   16988   16989   16991   16992   16986   16987   16989
   16990   16991   16992   16988   16989   16990   16991   16992   16989   16991
   16990   16991   16992   16992   16992       0   16994   16995   16996   16997
   16998   16999   17000   17001   17002   17003   17004   17005   17006   17007
   17008   17009   17010   16995   16996   16997   16998   16999   17000   17001
   17002   17003   17004   17011   16996   16997   16998   16999   17000   17001
   17002   17003   17005   17006   17007   17011   17012   16997   16998   16999
   17000   17001   17002   17006   17008   17009   17010   17012   17013   17014
   17015   16998   16999   17003   17004   17005   17011   17003   17004   17000
   17003   17004   17005   17006   17007   17011   17001   17003   17005   17006
   17007   17008   17012   17002   17006   17007   17008   17009   17010   17012
   17013   17014   17016   17017   17018   17006   17008   17009   17010   17013
   17015   17016   17004   17005   17011   17011   17011   17007   17008   17012
   17013   17014   17012   17009   17012   17013   17014   17015   17016   17017
   17018   17019   17020   17021   17010   17013   17014   17015   17016   17019
   17020   17013   17015       0       0   17014   17015   17016   17017   17018
   17019   17020   17022   17023   17024   17016   17017   17018   17019   17021
   17022   17016   17017   17019   17020   17021   17022   17023   17024   17025
   17026   17027   17018   17019   17020   17021   17022   17025   17026   17019
   17021   17020   17021   17022   17023   17024   17025   17026   17028   17022
   17023   17024   17025   17027   17028   17022   17023   17025   17026   17027
   17028   17024   17025   17026   17027   17028   17025   17027   17026   17027
   17028   17028   17028       0   17030   17031   17032   17033   17034   17035
   17036   17037   17038   17039   17040   17041   17042   17043   17044   17045
   17046   17031   17032   17033   17034   17035   17036   17037   17038   17039
   17040   17047   17032   17033   17034   17035   17036   17037   17038   17039
   17041   17042   17043   17047   17048   17033   17034   17035   17036   17037
   17038   17042   17044   17045   17046   17048   17049   17050   17051   17034
   17035   17039   17040   17041   17047   17039   17040   17036   17039   17040
   17041   17042   17043   17047   17037   17039   17041   17042   17043   17044
   17048   17038   17042   17043   17044   17045   17046   17048   17049   17050
   17052   17053   17054   17042   17044   17045   17046   17049   17051   17052
   17040   17041   17047   17047   17047   17043   17044   17048   17049   17050
   17048   17045   17048   17049   17050   17051   17052   17053   17054   17055
   17056   17057   17046   17049   17050   17051   17052   17055   17056   17049
   17051       0       0   17050   17051   17052   17053   17054   17055   17056
   17058   17059   17060   17052   17053   17054   17055   17057   17058   17052
   17053   17055   17056   17057   17058   17059   17060   17061   17062   17063
   17054   17055   17056   17057   17058   17061   17062   17055   17057   17056
   17057   17058   17059   17060   17061   17062   17064   17058   17059   17060
   17061   17063   17064   17058   17059   17061   17062   17063   17064   17060
   17061   17062   17063   17064   17061   17063   17062   17063   17064   17064
   17064       0   17066   17067   17068   17069   17070   17071   17072   17073
   17074   17075   17076   17077   17078   17079   17080   17081   17082   17067
   17068   17069   17070   17071   17072   17073   17074   17075   17076   17083
   17068   17069   17070   17071   17072   17073   17074   17075   17077   17078
   17079   17083   17084   17069   17070   17071   17072   17073   17074   17078
   17080   17081   17082   17084   17085   17086   17087   17070   17071   17075
   17076   17077   17083   17075   17076   17072   17075   17076   17077   17078
   17079   17083   17073   17075   17077   17078   17079   17080   17084   17074
   17078   17079   17080   17081   17082   17084   17085   17086   17088   17089
   17090   17078   17080   17081   17082   17085   17087   17088   17076   17077
   17083   17083   17083   17079   17080   17084   17085   17086   17084   17081
   17084   17085   17086   17087   17088   17089   17090   17091   17092   17093
   17082   17085   17086   17087   17088   17091   17092   17085   17087       0
       0   17086   17087   17088   17089   17090   17091   17092   17094   17095
   17096   17088   17089   17090   17091   17093   17094   17088   17089   17091
   17092   17093   17094   17095   17096   17097   17098   17099   17090   17091
   17092   17093   17094   17097   17098   17091   17093   17092   17093   17094
   17095   17096   17097   17098   17100   17094   17095   17096   17097   17099
   17100   17094   17095   17097   17098   17099   17100   17096   17097   17098
   17099   17100   17097   17099   17098   17099   17100   17100   17100       0
   17102   17103   17104   17105   17106   17107   17108   17109   17110   17111
   17112   17113   17114   17115   17116   17117   17118   17103   17104   17105
   17106   17107   17108   17109   17110   17111   17112   17119   17104   17105
   17106   17107   17108   17109   17110   17111   17113   17114   17115   17119
   17120   17105   17106   17107   17108   17109   17110   17114   17116   17117
   17118   17120   17121   17122   17123   17106   17107   17111   17112   17113
   17119   17111   17112   17108   17111   17112   17113   17114   17115   17119
   17109   17111   17113   17114   17115   17116   17120   17110   17114   17115
   17116   17117   17118   17120   17121   17122   17124   17125   17126   17114
   17116   17117   17118   17121   17123   17124   17112   17113   17119   17119
   17119   17115   17116   17120   17121   17122   17120   17117   17120   17121
   17122   17123   17124   17125   17126   17127   17128   17129   17118   17121
   17122   17123   17124   17127   17128   17121   17123       0       0   17122
   17123   17124   17125   17126   17127   17128   17130   17131   17132   17124
   17125   17126   17127   17129   17130   17124   17125   17127   17128   17129
   17130   17131   17132   17133   17134   17135   17126   17127   17128   17129
   17130   17133   17134   17127   17129   17128   17129   17130   17131   17132
   17133   17134   17136   17130   17131   17132   17133   17135   17136   17130
   17131   17133   17134   17135   17136   17132   17133   17134   17135   17136
   17133   17135   17134   17135   17136   17136   17136       0   17138   17139
   17140   17141   17142   17143   17144   17145   17146   17147   17148   17149
   17150   17151   17152   17153   17154   17139   17140   17141   17142   17143
   17144   17145   17146   17147   17148   17155   17140   17141   17142   17143
   17144   17145   17146   17147   17149   17150   17151   17155   17156   17141
   17142   17143   17144   17145   17146   17150   17152   17153   17154   17156
   17157   17158   17159   17142   17143   17147   17148   17149   17155   17147
   17148   17144   17147   17148   17149   17150   17151   17155   17145   17147
   17149   17150   17151   17152   17156   17146   17150   17151   17152   17153
   17154   17156   17157   17158   17160   17161   17162   17150   17152   17153
   17154   17157   17159   17160   17148   17149   17155   17155   17155   17151
   17152   17156   17157   17158   17156   17153   17156   17157   17158   17159
   17160   17161   17162   17163   17164   17165   17154   17157   17158   17159
   17160   17163   17164   17157   17159       0       0   17158   17159   17160
   17161   17162   17163   17164   17166   17167   17168   17160   17161   17162
   17163   17165   17166   17160   17161   17163   17164   17165   17166   17167
   17168   17169   17170   17171   17162   17163   17164   17165   17166   17169
   17170   17163   17165   17164   17165   17166   17167   17168   17169   17170
   17172   17166   17167   17168   17169   17171   17172   17166   17167   17169
   17170   17171   17172   17168   17169   17170   17171   17172   17169   17171
   17170   17171   17172   17172   17172       0   17174   17175   17176   17177
   17178   17179   17180   17181   17182   17183   17184   17185   17186   17187
   17188   17189   17190   17175   17176   17177   17178   17179   17180   17181
   17182   17183   17184   17191   17176   17177   17178   17179   17180   17181
   17182   17183   17185   17186   17187   17191   17192   17177   17178   17179
   17180   17181   17182   17186   17188   17189   17190   17192   17193   17194
   17195   17178   17179   17183   17184   17185   17191   17183   17184   17180
   17183   17184   17185   17186   17187   17191   17181   17183   17185   17186
   17187   17188   17192   17182   17186   17187   17188   17189   17190   17192
   17193   17194   17196   17197   17198   17186   17188   17189   17190   17193
   17195   17196   17184   17185   17191   17191   17191   17187   17188   17192
   17193   17194   17192   17189   17192   17193   17194   17195   17196   17197
   17198   17199   17200   17201   17190   17193   17194   17195   17196   17199
   17200   17193   17195       0       0   17194   17195   17196   17197   17198
   17199   17200   17202   17203   17204   17196   17197   17198   17199   17201
   17202   17196   17197   17199   17200   17201   17202   17203   17204   17205
   17206   17207   17198   17199   17200   17201   17202   17205   17206   17199
   17201   17200   17201   17202   17203   17204   17205   17206   17208   17202
   17203   17204   17205   17207   17208   17202   17203   17205   17206   17207
   17208   17204   17205   17206   17207   17208   17205   17207   17206   17207
   17208   17208   17208       0   17210   17211   17212   17213   17214   17215
   17216   17217   17218   17219   17220   17221   17222   17223   17224   17225
   17226   17211   17212   17213   17214   17215   17216   17217   17218   17219
   17220   17227   17212   17213   17214   17215   17216   17217   17218   17219
   17221   17222   17223   17227   17228   17213   17214   17215   17216   17217
   17218   17222   17224   17225   17226   17228   17229   17230   17231   17214
   17215   17219   17220   17221   17227   17219   17220   17216   17219   17220
   17221   17222   17223   17227   17217   17219   17221   17222   17223   17224
   17228   17218   17222   17223   17224   17225   17226   17228   17229   17230
   17232   17233   17234   17222   17224   17225   17226   17229   17231   17232
   17220   17221   17227   17227   17227   17223   17224   17228   17229   17230
   17228   17225   17228   17229   17230   17231   17232   17233   17234   17235
   17236   17237   17226   17229   17230   17231   17232   17235   17236   17229
   17231       0       0   17230   17231   17232   17233   17234   17235   17236
   17238   17239   17240   17232   17233   17234   17235   17237   17238   17232
   17233   17235   17236   17237   17238   17239   17240   17241   17242   17243
   17234   17235   17236   17237   17238   17241   17242   17235   17237   17236
   17237   17238   17239   17240   17241   17242   17244   17238   17239   17240
   17241   17243   17244   17238   17239   17241   17242   17243   17244   17240
   17241   17242   17243   17244   17241   17243   17242   17243   17244   17244
   17244       0   17246   17247   17248   17249   17250   17251   17252   17253
   17254   17255   17256   17257   17258   17259   17260   17261   17262   17247
   17248   17249   17250   17251   17252   17253   17254   17255   17256   17263
   17248   17249   17250   17251   17252   17253   17254   17255   17257   17258
   17259   17263   17264   17249   17250   17251   17252   17253   17254   17258
   17260   17261   17262   17264   17265   17266   17267   17250   17251   17255
   17256   17257   17263   17255   17256   17252   17255   17256   17257   17258
   17259   17263   17253   17255   17257   17258   17259   17260   17264   17254
   17258   17259   17260   17261   17262   17264   17265   17266   17268   17269
   17270   17258   17260   17261   17262   17265   17267   17268   17256   17257
   17263   17263   17263   17259   17260   17264   17265   17266   17264   17261
   17264   17265   17266   17267   17268   17269   17270   17271   17272   17273
   17262   17265   17266   17267   17268   17271   17272   17265   17267       0
       0   17266   17267   17268   17269   17270   17271   17272   17274   17275
   17276   17268   17269   17270   17271   17273   17274   17268   17269   17271
   17272   17273   17274   17275   17276   17277   17278   17279   17270   17271
   17272   17273   17274   17277   17278   17271   17273   17272   17273   17274
   17275   17276   17277   17278   17280   17274   17275   17276   17277   17279
   17280   17274   17275   17277   17278   17279   17280   17276   17277   17278
   17279   17280   17277   17279   17278   17279   17280   17280   17280       0
   17282   17283   17284   17285   17286   17287   17288   17289   17290   17291
   17292   17293   17294   17295   17296   17297   17298   17283   17284   17285
   17286   17287   17288   17289   17290   17291   17292   17299   17284   17285
   17286   17287   17288   17289   17290   17291   17293   17294   17295   17299
   17300   17285   17286   17287   17288   17289   17290   17294   17296   17297
   17298   17300   17301   17302   17303   17286   17287   17291   17292   17293
   17299   17291   17292   17288   17291   17292   17293   17294   17295   17299
   17289   17291   17293   17294   17295   17296   17300   17290   17294   17295
   17296   17297   17298   17300   17301   17302   17304   17305   17306   17294
   17296   17297   17298   17301   17303   17304   17292   17293   17299   17299
   17299   17295   17296   17300   17301   17302   17300   17297   17300   17301
   17302   17303   17304   17305   17306   17307   17308   17309   17298   17301
   17302   17303   17304   17307   17308   17301   17303       0       0   17302
   17303   17304   17305   17306   17307   17308   17310   17311   17312   17304
   17305   17306   17307   17309   17310   17304   17305   17307   17308   17309
   17310   17311   17312   17313   17314   17315   17306   17307   17308   17309
   17310   17313   17314   17307   17309   17308   17309   17310   17311   17312
   17313   17314   17316   17310   17311   17312   17313   17315   17316   17310
   17311   17313   17314   17315   17316   17312   17313   17314   17315   17316
   17313   17315   17314   17315   17316   17316   17316       0   17318   17319
   17320   17321   17322   17323   17324   17325   17326   17327   17328   17329
   17330   17331   17332   17333   17334   17319   17320   17321   17322   17323
   17324   17325   17326   17327   17328   17335   17320   17321   17322   17323
   17324   17325   17326   17327   17329   17330   17331   17335   17336   17321
   17322   17323   17324   17325   17326   17330   17332   17333   17334   17336
   17337   17338   17339   17322   17323   17327   17328   17329   17335   17327
   17328   17324   17327   17328   17329   17330   17331   17335   17325   17327
   17329   17330   17331   17332   17336   17326   17330   17331   17332   17333
   17334   17336   17337   17338   17340   17341   17342   17330   17332   17333
   17334   17337   17339   17340   17328   17329   17335   17335   17335   17331
   17332   17336   17337   17338   17336   17333   17336   17337   17338   17339
   17340   17341   17342   17343   17344   17345   17334   17337   17338   17339
   17340   17343   17344   17337   17339       0       0   17338   17339   17340
   17341   17342   17343   17344   17346   17347   17348   17340   17341   17342
   17343   17345   17346   17340   17341   17343   17344   17345   17346   17347
   17348   17349   17350   17351   17342   17343   17344   17345   17346   17349
   17350   17343   17345   17344   17345   17346   17347   17348   17349   17350
   17352   17346   17347   17348   17349   17351   17352   17346   17347   17349
   17350   17351   17352   17348   17349   17350   17351   17352   17349   17351
   17350   17351   17352   17352   17352       0   17354   17355   17356   17357
   17358   17359   17360   17361   17362   17363   17364   17365   17366   17367
   17368   17369   17370   17355   17356   17357   17358   17359   17360   17361
   17362   17363   17364   17371   17356   17357   17358   17359   17360   17361
   17362   17363   17365   17366   17367   17371   17372   17357   17358   17359
   17360   17361   17362   17366   17368   17369   17370   17372   17373   17374
   17375   17358   17359   17363   17364   17365   17371   17363   17364   17360
   17363   17364   17365   17366   17367   17371   17361   17363   17365   17366
   17367   17368   17372   17362   17366   17367   17368   17369   17370   17372
   17373   17374   17376   17377   17378   17366   17368   17369   17370   17373
   17375   17376   17364   17365   17371   17371   17371   17367   17368   17372
   17373   17374   17372   17369   17372   17373   17374   17375   17376   17377
   17378   17379   17380   17381   17370   17373   17374   17375   17376   17379
   17380   17373   17375       0       0   17374   17375   17376   17377   17378
   17379   17380   17382   17383   17384   17376   17377   17378   17379   17381
   17382   17376   17377   17379   17380   17381   17382   17383   17384   17385
   17386   17387   17378   17379   17380   17381   17382   17385   17386   17379
   17381   17380   17381   17382   17383   17384   17385   17386   17388   17382
   17383   17384   17385   17387   17388   17382   17383   17385   17386   17387
   17388   17384   17385   17386   17387   17388   17385   17387   17386   17387
   17388   17388   17388       0   17390   17391   17392   17393   17394   17395
   17396   17397   17398   17399   17400   17401   17402   17403   17404   17405
   17406   17391   17392   17393   17394   17395   17396   17397   17398   17399
   17400   17407   17392   17393   17394   17395   17396   17397   17398   17399
   17401   17402   17403   17407   17408   17393   17394   17395   17396   17397
   17398   17402   17404   17405   17406   17408   17409   17410   17411   17394
   17395   17399   17400   17401   17407   17399   17400   17396   17399   17400
   17401   17402   17403   17407   17397   17399   17401   17402   17403   17404
   17408   17398   17402   17403   17404   17405   17406   17408   17409   17410
   17412   17413   17414   17402   17404   17405   17406   17409   17411   17412
   17400   17401   17407   17407   17407   17403   17404   17408   17409   17410
   17408   17405   17408   17409   17410   17411   17412   17413   17414   17415
   17416   17417   17406   17409   17410   17411   17412   17415   17416   17409
   17411       0       0   17410   17411   17412   17413   17414   17415   17416
   17418   17419   17420   17412   17413   17414   17415   17417   17418   17412
   17413   17415   17416   17417   17418   17419   17420   17421   17422   17423
   17414   17415   17416   17417   17418   17421   17422   17415   17417   17416
   17417   17418   17419   17420   17421   17422   17424   17418   17419   17420
   17421   17423   17424   17418   17419   17421   17422   17423   17424   17420
   17421   17422   17423   17424   17421   17423   17422   17423   17424   17424
   17424       0   17426   17427   17428   17429   17430   17431   17432   17433
   17434   17435   17436   17437   17438   17439   17440   17441   17442   17427
   17428   17429   17430   17431   17432   17433   17434   17435   17436   17443
   17428   17429   17430   17431   17432   17433   17434   17435   17437   17438
   17439   17443   17444   17429   17430   17431   17432   17433   17434   17438
   17440   17441   17442   17444   17445   17446   17447   17430   17431   17435
   17436   17437   17443   17435   17436   17432   17435   17436   17437   17438
   17439   17443   17433   17435   17437   17438   17439   17440   17444   17434
   17438   17439   17440   17441   17442   17444   17445   17446   17448   17449
   17450   17438   17440   17441   17442   17445   17447   17448   17436   17437
   17443   17443   17443   17439   17440   17444   17445   17446   17444   17441
   17444   17445   17446   17447   17448   17449   17450   17451   17452   17453
   17442   17445   17446   17447   17448   17451   17452   17445   17447       0
       0   17446   17447   17448   17449   17450   17451   17452   17454   17455
   17456   17448   17449   17450   17451   17453   17454   17448   17449   17451
   17452   17453   17454   17455   17456   17457   17458   17459   17450   17451
   17452   17453   17454   17457   17458   17451   17453   17452   17453   17454
   17455   17456   17457   17458   17460   17454   17455   17456   17457   17459
   17460   17454   17455   17457   17458   17459   17460   17456   17457   17458
   17459   17460   17457   17459   17458   17459   17460   17460   17460       0
   17462   17463   17464   17465   17466   17467   17468   17469   17470   17471
   17472   17473   17474   17475   17476   17477   17478   17463   17464   17465
   17466   17467   17468   17469   17470   17471   17472   17479   17464   17465
   17466   17467   17468   17469   17470   17471   17473   17474   17475   17479
   17480   17465   17466   17467   17468   17469   17470   17474   17476   17477
   17478   17480   17481   17482   17483   17466   17467   17471   17472   17473
   17479   17471   17472   17468   17471   17472   17473   17474   17475   17479
   17469   17471   17473   17474   17475   17476   17480   17470   17474   17475
   17476   17477   17478   17480   17481   17482   17484   17485   17486   17474
   17476   17477   17478   17481   17483   17484   17472   17473   17479   17479
   17479   17475   17476   17480   17481   17482   17480   17477   17480   17481
   17482   17483   17484   17485   17486   17487   17488   17489   17478   17481
   17482   17483   17484   17487   17488   17481   17483       0       0   17482
   17483   17484   17485   17486   17487   17488   17490   17491   17492   17484
   17485   17486   17487   17489   17490   17484   17485   17487   17488   17489
   17490   17491   17492   17493   17494   17495   17486   17487   17488   17489
   17490   17493   17494   17487   17489   17488   17489   17490   17491   17492
   17493   17494   17496   17490   17491   17492   17493   17495   17496   17490
   17491   17493   17494   17495   17496   17492   17493   17494   17495   17496
   17493   17495   17494   17495   17496   17496   17496       0   17498   17499
   17500   17501   17502   17503   17504   17505   17506   17507   17508   17509
   17510   17511   17512   17513   17514   17499   17500   17501   17502   17503
   17504   17505   17506   17507   17508   17515   17500   17501   17502   17503
   17504   17505   17506   17507   17509   17510   17511   17515   17516   17501
   17502   17503   17504   17505   17506   17510   17512   17513   17514   17516
   17517   17518   17519   17502   17503   17507   17508   17509   17515   17507
   17508   17504   17507   17508   17509   17510   17511   17515   17505   17507
   17509   17510   17511   17512   17516   17506   17510   17511   17512   17513
   17514   17516   17517   17518   17520   17521   17522   17510   17512   17513
   17514   17517   17519   17520   17508   17509   17515   17515   17515   17511
   17512   17516   17517   17518   17516   17513   17516   17517   17518   17519
   17520   17521   17522   17523   17524   17525   17514   17517   17518   17519
   17520   17523   17524   17517   17519       0       0   17518   17519   17520
   17521   17522   17523   17524   17526   17527   17528   17520   17521   17522
   17523   17525   17526   17520   17521   17523   17524   17525   17526   17527
   17528   17529   17530   17531   17522   17523   17524   17525   17526   17529
   17530   17523   17525   17524   17525   17526   17527   17528   17529   17530
   17532   17526   17527   17528   17529   17531   17532   17526   17527   17529
   17530   17531   17532   17528   17529   17530   17531   17532   17529   17531
   17530   17531   17532   17532   17532       0   17534   17535   17536   17537
   17538   17539   17540   17541   17542   17543   17544   17545   17546   17547
   17548   17549   17550   17535   17536   17537   17538   17539   17540   17541
   17542   17543   17544   17551   17536   17537   17538   17539   17540   17541
   17542   17543   17545   17546   17547   17551   17552   17537   17538   17539
   17540   17541   17542   17546   17548   17549   17550   17552   17553   17554
   17555   17538   17539   17543   17544   17545   17551   17543   17544   17540
   17543   17544   17545   17546   17547   17551   17541   17543   17545   17546
   17547   17548   17552   17542   17546   17547   17548   17549   17550   17552
   17553   17554   17556   17557   17558   17546   17548   17549   17550   17553
   17555   17556   17544   17545   17551   17551   17551   17547   17548   17552
   17553   17554   17552   17549   17552   17553   17554   17555   17556   17557
   17558   17559   17560   17561   17550   17553   17554   17555   17556   17559
   17560   17553   17555       0       0   17554   17555   17556   17557   17558
   17559   17560   17562   17563   17564   17556   17557   17558   17559   17561
   17562   17556   17557   17559   17560   17561   17562   17563   17564   17565
   17566   17567   17558   17559   17560   17561   17562   17565   17566   17559
   17561   17560   17561   17562   17563   17564   17565   17566   17568   17562
   17563   17564   17565   17567   17568   17562   17563   17565   17566   17567
   17568   17564   17565   17566   17567   17568   17565   17567   17566   17567
   17568   17568   17568       0   17570   17571   17572   17573   17574   17575
   17576   17577   17578   17579   17580   17581   17582   17583   17584   17585
   17586   17571   17572   17573   17574   17575   17576   17577   17578   17579
   17580   17587   17572   17573   17574   17575   17576   17577   17578   17579
   17581   17582   17583   17587   17588   17573   17574   17575   17576   17577
   17578   17582   17584   17585   17586   17588   17589   17590   17591   17574
   17575   17579   17580   17581   17587   17579   17580   17576   17579   17580
   17581   17582   17583   17587   17577   17579   17581   17582   17583   17584
   17588   17578   17582   17583   17584   17585   17586   17588   17589   17590
   17592   17593   17594   17582   17584   17585   17586   17589   17591   17592
   17580   17581   17587   17587   17587   17583   17584   17588   17589   17590
   17588   17585   17588   17589   17590   17591   17592   17593   17594   17595
   17596   17597   17586   17589   17590   17591   17592   17595   17596   17589
   17591       0       0   17590   17591   17592   17593   17594   17595   17596
   17598   17599   17600   17592   17593   17594   17595   17597   17598   17592
   17593   17595   17596   17597   17598   17599   17600   17601   17602   17603
   17594   17595   17596   17597   17598   17601   17602   17595   17597   17596
   17597   17598   17599   17600   17601   17602   17604   17598   17599   17600
   17601   17603   17604   17598   17599   17601   17602   17603   17604   17600
   17601   17602   17603   17604   17601   17603   17602   17603   17604   17604
   17604       0   17606   17607   17608   17609   17610   17611   17612   17613
   17614   17615   17616   17617   17618   17619   17620   17621   17622   17607
   17608   17609   17610   17611   17612   17613   17614   17615   17616   17623
   17608   17609   17610   17611   17612   17613   17614   17615   17617   17618
   17619   17623   17624   17609   17610   17611   17612   17613   17614   17618
   17620   17621   17622   17624   17625   17626   17627   17610   17611   17615
   17616   17617   17623   17615   17616   17612   17615   17616   17617   17618
   17619   17623   17613   17615   17617   17618   17619   17620   17624   17614
   17618   17619   17620   17621   17622   17624   17625   17626   17628   17629
   17630   17618   17620   17621   17622   17625   17627   17628   17616   17617
   17623   17623   17623   17619   17620   17624   17625   17626   17624   17621
   17624   17625   17626   17627   17628   17629   17630   17631   17632   17633
   17622   17625   17626   17627   17628   17631   17632   17625   17627       0
       0   17626   17627   17628   17629   17630   17631   17632   17634   17635
   17636   17628   17629   17630   17631   17633   17634   17628   17629   17631
   17632   17633   17634   17635   17636   17637   17638   17639   17630   17631
   17632   17633   17634   17637   17638   17631   17633   17632   17633   17634
   17635   17636   17637   17638   17640   17634   17635   17636   17637   17639
   17640   17634   17635   17637   17638   17639   17640   17636   17637   17638
   17639   17640   17637   17639   17638   17639   17640   17640   17640       0
%FLAG HBOND_ACOEF
%FORMAT(5E16.8)

%FLAG HBOND_BCOEF
%FORMAT(5E16.8)

%FLAG HBCUT
%FORMAT(5E16.8)

%FLAG AMBER_ATOM_TYPE
%FORMAT(20a4)
ca  ca  ca  ca  ca  ha  ca  ca  ca  ca  ca  ha  ha  ca  ha  ca  ca  ha  ha  ha  
ca  ca  ha  ca  ca  ha  ca  ca  ha  ca  ca  ha  ca  ha  ha  ha  ca  ca  ca  ca  
ca  ha  ca  ca  ca  ca  ca  ha  ha  ca  ha  ca  ca  ha  ha  ha  ca  ca  ha  ca  
ca  ha  ca  ca  ha  ca  ca  ha  ca  ha  ha  ha  ca  ca  ca  ca  ca  ha  ca  ca  
ca  ca  ca  ha  ha  ca  ha  ca  ca  ha  ha  ha  ca  ca  ha  ca  ca  ha  ca  ca  
ha  ca  ca  ha  ca  ha  ha  ha  ca  ca  ca  ca  ca  ha  ca  ca  ca  ca  ca  ha  
ha  ca  ha  ca  ca  ha  ha  ha  ca  ca  ha  ca  ca  ha  ca  ca  ha  ca  ca  ha  
ca  ha  ha  ha  ca  ca  ca  ca  ca  ha  ca  ca  ca  ca  ca  ha  ha  ca  ha  ca  
ca  ha  ha  ha  ca  ca  ha  ca  ca  ha  ca  ca  ha  ca  ca  ha  ca  ha  ha  ha  
ca  ca  ca  ca  ca  ha  ca  ca  ca  ca  ca  ha  ha  ca  ha  ca  ca  ha  ha  ha  
ca  ca  ha  ca  ca  ha  ca  ca  ha  ca  ca  ha  ca  ha  ha  ha  ca  ca  ca  ca  
ca  ha  ca  ca  ca  ca  ca  ha  ha  ca  ha  ca  ca  ha  ha  ha  ca  ca  ha  ca  
ca  ha  ca  ca  ha  ca  ca  ha  ca  ha  ha  ha  ca  ca  ca  ca  ca  ha  ca  ca  
ca  ca  ca  ha  ha  ca  ha  ca  ca  ha  ha  ha  ca  ca  ha  ca  ca  ha  ca  ca  
ha  ca  ca  ha  ca  ha  ha  ha  ca  ca  ca  ca  ca  ha  ca  ca  ca  ca  ca  ha  
ha  ca  ha  ca  ca  ha  ha  ha  ca  ca  ha  ca  ca  ha  ca  ca  ha  ca  ca  ha  
ca  ha  ha  ha  ca  ca  ca  ca  ca  ha  ca  ca  ca  ca  ca  ha  ha  ca  ha  ca  
ca  ha  ha  ha  ca  ca  ha  ca  ca  ha  ca  ca  ha  ca  ca  ha  ca  ha  ha  ha  
ca  ca  ca  ca  ca  ha  ca  ca  ca  ca  ca  ha  ha  ca  ha  ca  ca  ha  ha  ha  
ca  ca  ha  ca  ca  ha  ca  ca  ha  ca  ca  ha  ca  ha  ha  ha  ca  ca  ca  ca  
ca  ha  ca  ca  ca  ca  ca  ha  ha  ca  ha  ca  ca  ha  ha  ha  ca  ca  ha  ca  
ca  ha  ca  ca  ha  ca  ca  ha  ca  ha  ha  ha  ca  ca  ca  ca  ca  ha  ca  ca  
ca  ca  ca  ha  ha  ca  ha  ca  ca  ha  ha  ha  ca  ca  ha  ca  ca  ha  ca  ca  
ha  ca  ca  ha  ca  ha  ha  ha  ca  ca  ca  ca  ca  ha  ca  ca  ca  ca  ca  ha  
ha  ca  ha  ca  ca  ha  ha  ha  ca  ca  ha  ca  ca  ha  ca  ca  ha  ca  ca  ha  
ca  ha  ha  ha  ca  ca  ca  ca  ca  ha  ca  ca  ca  ca  ca  ha  ha  ca  ha  ca  
ca  ha  ha  ha  ca  ca  ha  ca  ca  ha  ca  ca  ha  ca  ca  ha  ca  ha  ha  ha  
ca  ca  ca  ca  ca  ha  ca  ca  ca  ca  ca  ha  ha  ca  ha  ca  ca  ha  ha  ha  
ca  ca  ha  ca  ca  ha  ca  ca  ha  ca  ca  ha  ca  ha  ha  ha  ca  ca  ca  ca  
ca  ha  ca  ca  ca  ca  ca  ha  ha  ca  ha  ca  ca  ha  ha  ha  ca  ca  ha  ca  
ca  ha  ca  ca  ha  ca  ca  ha  ca  ha  ha  ha  ca  ca  ca  ca  ca  ha  ca  ca  
ca  ca  ca  ha  ha  ca  ha  ca  ca  ha  ha  ha  ca  ca  ha  ca  ca  ha  ca  ca  
ha  ca  ca  ha  ca  ha  ha  ha  ca  ca  ca  ca  ca  ha  ca  ca  ca  ca  ca  ha  
ha  ca  ha  ca  ca  ha  ha  ha  ca  ca  ha  ca  ca  ha  ca  ca  ha  ca  ca  ha  
ca  ha  ha  ha  ca  ca  ca  ca  ca  ha  ca  ca  ca  ca  ca  ha  ha  ca  ha  ca  
ca  ha  ha  ha  ca  ca  ha  ca  ca  ha  ca  ca  ha  ca  ca  ha  ca  ha  ha  ha  
ca  ca  ca  ca  ca  ha  ca  ca  ca  ca  ca  ha  ha  ca  ha  ca  ca  ha  ha  ha  
ca  ca  ha  ca  ca  ha  ca  ca  ha  ca  ca  ha  ca  ha  ha  ha  ca  ca  ca  ca  
ca  ha  ca  ca  ca  ca  ca  ha  ha  ca  ha  ca  ca  ha  ha  ha  ca  ca  ha  ca  
ca  ha  ca  ca  ha  ca  ca  ha  ca  ha  ha  ha  ca  ca  ca  ca  ca  ha  ca  ca  
ca  ca  ca  ha  ha  ca  ha  ca  ca  ha  ha  ha  ca  ca  ha  ca  ca  ha  ca  ca  
ha  ca  ca  ha  ca  ha  ha  ha  ca  ca  ca  ca  ca  ha  ca  ca  ca  ca  ca  ha  
ha  ca  ha  ca  ca  ha  ha  ha  ca  ca  ha  ca  ca  ha  ca  ca  ha  ca  ca  ha  
ca  ha  ha  ha  ca  ca  ca  ca  ca  ha  ca  ca  ca  ca  ca  ha  ha  ca  ha  ca  
ca  ha  ha  ha  ca  ca  ha  ca  ca  ha  ca  ca  ha  ca  ca  ha  ca  ha  ha  ha  
ca  ca  ca  ca  ca  ha  ca  ca  ca  ca  ca  ha  ha  ca  ha  ca  ca  ha  ha  ha  
ca  ca  ha  ca  ca  ha  ca  ca  ha  ca  ca  ha  ca  ha  ha  ha  ca  ca  ca  ca  
ca  ha  ca  ca  ca  ca  ca  ha  ha  ca  ha  ca  ca  ha  ha  ha  ca  ca  ha  ca  
ca  ha  ca  ca  ha  ca  ca  ha  ca  ha  ha  ha  ca  ca  ca  ca  ca  ha  ca  ca  
ca  ca  ca  ha  ha  ca  ha  ca  ca  ha  ha  ha  ca  ca  ha  ca  ca  ha  ca  ca  
ha  ca  ca  ha  ca  ha  ha  ha  ca  ca  ca  ca  ca  ha  ca  ca  ca  ca  ca  ha  
ha  ca  ha  ca  ca  ha  ha  ha  ca  ca  ha  ca  ca  ha  ca  ca  ha  ca  ca  ha  
ca  ha  ha  ha  ca  ca  ca  ca  ca  ha  ca  ca  ca  ca  ca  ha  ha  ca  ha  ca  
ca  ha  ha  ha  ca  ca  ha  ca  ca  ha  ca  ca  ha  ca  ca  ha  ca  ha  ha  ha  
ca  ca  ca  ca  ca  ha  ca  ca  ca  ca  ca  ha  ha  ca  ha  ca  ca  ha  ha  ha  
ca  ca  ha  ca  ca  ha  ca  ca  ha  ca  ca  ha  ca  ha  ha  ha  ca  ca  ca  ca  
ca  ha  ca  ca  ca  ca  ca  ha  ha  ca  ha  ca  ca  ha  ha  ha  ca  ca  ha  ca  
ca  ha  ca  ca  ha  ca  ca  ha  ca  ha  ha  ha  ca  ca  ca  ca  ca  ha  ca  ca  
ca  ca  ca  ha  ha  ca  ha  ca  ca  ha  ha  ha  ca  ca  ha  ca  ca  ha  ca  ca  
ha  ca  ca  ha  ca  ha  ha  ha  ca  ca  ca  ca  ca  ha  ca  ca  ca  ca  ca  ha  
ha  ca  ha  ca  ca  ha  ha  ha  ca  ca  ha  ca  ca  ha  ca  ca  ha  ca  ca  ha  
ca  ha  ha  ha  ca  ca  ca  ca  ca  ha  ca  ca  ca  ca  ca  ha  ha  ca  ha  ca  
ca  ha  ha  ha  ca  ca  ha  ca  ca  ha  ca  ca  ha  ca  ca  ha  ca  ha  ha  ha  
ca  ca  ca  ca  ca  ha  ca  ca  ca  ca  ca  ha  ha  ca  ha  ca  ca  ha  ha  ha  
ca  ca  ha  ca  ca  ha  ca  ca  ha  ca  ca  ha  ca  ha  ha  ha  ca  ca  ca  ca  
ca  ha  ca  ca  ca  ca  ca  ha  ha  ca  ha  ca  ca  ha  ha  ha  ca  ca  ha  ca  
ca  ha  ca  ca  ha  ca  ca  ha  ca  ha  ha  ha  ca  ca  ca  ca  ca  ha  ca  ca  
ca  ca  ca  ha  ha  ca  ha  ca  ca  ha  ha  ha  ca  ca  ha  ca  ca  ha  ca  ca  
ha  ca  ca  ha  ca  ha  ha  ha  ca  ca  ca  ca  ca  ha  ca  ca  ca  ca  ca  ha  
ha  ca  ha  ca  ca  ha  ha  ha  ca  ca  ha  ca  ca  ha  ca  ca  ha  ca  ca  ha  
ca  ha  ha  ha  ca  ca  ca  ca  ca  ha  ca  ca  ca  ca  ca  ha  ha  ca  ha  ca  
ca  ha  ha  ha  ca  ca  ha  ca  ca  ha  ca  ca  ha  ca  ca  ha  ca  ha  ha  ha  
ca  ca  ca  ca  ca  ha  ca  ca  ca  ca  ca  ha  ha  ca  ha  ca  ca  ha  ha  ha  
ca  ca  ha  ca  ca  ha  ca  ca  ha  ca  ca  ha  ca  ha  ha  ha  ca  ca  ca  ca  
ca  ha  ca  ca  ca  ca  ca  ha  ha  ca  ha  ca  ca  ha  ha  ha  ca  ca  ha  ca  
ca  ha  ca  ca  ha  ca  ca  ha  ca  ha  ha  ha  ca  ca  ca  ca  ca  ha  ca  ca  
ca  ca  ca  ha  ha  ca  ha  ca  ca  ha  ha  ha  ca  ca  ha  ca  ca  ha  ca  ca  
ha  ca  ca  ha  ca  ha  ha  ha  ca  ca  ca  ca  ca  ha  ca  ca  ca  ca  ca  ha  
ha  ca  ha  ca  ca  ha  ha  ha  ca  ca  ha  ca  ca  ha  ca  ca  ha  ca  ca  ha  
ca  ha  ha  ha  ca  ca  ca  ca  ca  ha  ca  ca  ca  ca  ca  ha  ha  ca  ha  ca  
ca  ha  ha  ha  ca  ca  ha  ca  ca  ha  ca  ca  ha  ca  ca  ha  ca  ha  ha  ha  
ca  ca  ca  ca  ca  ha  ca  ca  ca  ca  ca  ha  ha  ca  ha  ca  ca  ha  ha  ha  
ca  ca  ha  ca  ca  ha  ca  ca  ha  ca  ca  ha  ca  ha  ha  ha  ca  ca  ca  ca  
ca  ha  ca  ca  ca  ca  ca  ha  ha  ca  ha  ca  ca  ha  ha  ha  ca  ca  ha  ca  
ca  ha  ca  ca  ha  ca  ca  ha  ca  ha  ha  ha  ca  ca  ca  ca  ca  ha  ca  ca  
ca  ca  ca  ha  ha  ca  ha  ca  ca  ha  ha  ha  ca  ca  ha  ca  ca  ha  ca  ca  
ha  ca  ca  ha  ca  ha  ha  ha  ca  ca  ca  ca  ca  ha  ca  ca  ca  ca  ca  ha  
ha  ca  ha  ca  ca  ha  ha  ha  ca  ca  ha  ca  ca  ha  ca  ca  ha  ca  ca  ha  
ca  ha  ha  ha  ca  ca  ca  ca  ca  ha  ca  ca  ca  ca  ca  ha  ha  ca  ha  ca  
ca  ha  ha  ha  ca  ca  ha  ca  ca  ha  ca  ca  ha  ca  ca  ha  ca  ha  ha  ha  
ca  ca  ca  ca  ca  ha  ca  ca  ca  ca  ca  ha  ha  ca  ha  ca  ca  ha  ha  ha  
ca  ca  ha  ca  ca  ha  ca  ca  ha  ca  ca  ha  ca  ha  ha  ha  ca  ca  ca  ca  
ca  ha  ca  ca  ca  ca  ca  ha  ha  ca  ha  ca  ca  ha  ha  ha  ca  ca  ha  ca  
ca  ha  ca  ca  ha  ca  ca  ha  ca  ha  ha  ha  ca  ca  ca  ca  ca  ha  ca  ca  
ca  ca  ca  ha  ha  ca  ha  ca  ca  ha  ha  ha  ca  ca  ha  ca  ca  ha  ca  ca  
ha  ca  ca  ha  ca  ha  ha  ha  ca  ca  ca  ca  ca  ha  ca  ca  ca  ca  ca  ha  
ha  ca  ha  ca  ca  ha  ha  ha  ca  ca  ha  ca  ca  ha  ca  ca  ha  ca  ca  ha  
ca  ha  ha  ha  ca  ca  ca  ca  ca  ha  ca  ca  ca  ca  ca  ha  ha  ca  ha  ca  
ca  ha  ha  ha  ca  ca  ha  ca  ca  ha  ca  ca  ha  ca  ca  ha  ca  ha  ha  ha  
ca  ca  ca  ca  ca  ha  ca  ca  ca  ca  ca  ha  ha  ca  ha  ca  ca  ha  ha  ha  
ca  ca  ha  ca  ca  ha  ca  ca  ha  ca  ca  ha  ca  ha  ha  ha  ca  ca  ca  ca  
ca  ha  ca  ca  ca  ca  ca  ha  ha  ca  ha  ca  ca  ha  ha  ha  ca  ca  ha  ca  
ca  ha  ca  ca  ha  ca  ca  ha  ca  ha  ha  ha  ca  ca  ca  ca  ca  ha  ca  ca  
ca  ca  ca  ha  ha  ca  ha  ca  ca  ha  ha  ha  ca  ca  ha  ca  ca  ha  ca  ca  
ha  ca  ca  ha  ca  ha  ha  ha  ca  ca  ca  ca  ca  ha  ca  ca  ca  ca  ca  ha  
ha  ca  ha  ca  ca  ha  ha  ha  ca  ca  ha  ca  ca  ha  ca  ca  ha  ca  ca  ha  
ca  ha  ha  ha  ca  ca  ca  ca  ca  ha  ca  ca  ca  ca  ca  ha  ha  ca  ha  ca  
ca  ha  ha  ha  ca  ca  ha  ca  ca  ha  ca  ca  ha  ca  ca  ha  ca  ha  ha  ha  
ca  ca  ca  ca  ca  ha  ca  ca  ca  ca  ca  ha  ha  ca  ha  ca  ca  ha  ha  ha  
ca  ca  ha  ca  ca  ha  ca  ca  ha  ca  ca  ha  ca  ha  ha  ha  ca  ca  ca  ca  
ca  ha  ca  ca  ca  ca  ca  ha  ha  ca  ha  ca  ca  ha  ha  ha  ca  ca  ha  ca  
ca  ha  ca  ca  ha  ca  ca  ha  ca  ha  ha  ha  ca  ca  ca  ca  ca  ha  ca  ca  
ca  ca  ca  ha  ha  ca  ha  ca  ca  ha  ha  ha  ca  ca  ha  ca  ca  ha  ca  ca  
ha  ca  ca  ha  ca  ha  ha  ha  ca  ca  ca  ca  ca  ha  ca  ca  ca  ca  ca  ha  
ha  ca  ha  ca  ca  ha  ha  ha  ca  ca  ha  ca  ca  ha  ca  ca  ha  ca  ca  ha  
ca  ha  ha  ha  ca  ca  ca  ca  ca  ha  ca  ca  ca  ca  ca  ha  ha  ca  ha  ca  
ca  ha  ha  ha  ca  ca  ha  ca  ca  ha  ca  ca  ha  ca  ca  ha  ca  ha  ha  ha  
ca  ca  ca  ca  ca  ha  ca  ca  ca  ca  ca  ha  ha  ca  ha  ca  ca  ha  ha  ha  
ca  ca  ha  ca  ca  ha  ca  ca  ha  ca  ca  ha  ca  ha  ha  ha  ca  ca  ca  ca  
ca  ha  ca  ca  ca  ca  ca  ha  ha  ca  ha  ca  ca  ha  ha  ha  ca  ca  ha  ca  
ca  ha  ca  ca  ha  ca  ca  ha  ca  ha  ha  ha  ca  ca  ca  ca  ca  ha  ca  ca  
ca  ca  ca  ha  ha  ca  ha  ca  ca  ha  ha  ha  ca  ca  ha  ca  ca  ha  ca  ca  
ha  ca  ca  ha  ca  ha  ha  ha  ca  ca  ca  ca  ca  ha  ca  ca  ca  ca  ca  ha  
ha  ca  ha  ca  ca  ha  ha  ha  ca  ca  ha  ca  ca  ha  ca  ca  ha  ca  ca  ha  
ca  ha  ha  ha  ca  ca  ca  ca  ca  ha  ca  ca  ca  ca  ca  ha  ha  ca  ha  ca  
ca  ha  ha  ha  ca  ca  ha  ca  ca  ha  ca  ca  ha  ca  ca  ha  ca  ha  ha  ha  
ca  ca  ca  ca  ca  ha  ca  ca  ca  ca  ca  ha  ha  ca  ha  ca  ca  ha  ha  ha  
ca  ca  ha  ca  ca  ha  ca  ca  ha  ca  ca  ha  ca  ha  ha  ha  ca  ca  ca  ca  
ca  ha  ca  ca  ca  ca  ca  ha  ha  ca  ha  ca  ca  ha  ha  ha  ca  ca  ha  ca  
ca  ha  ca  ca  ha  ca  ca  ha  ca  ha  ha  ha  ca  ca  ca  ca  ca  ha  ca  ca  
ca  ca  ca  ha  ha  ca  ha  ca  ca  ha  ha  ha  ca  ca  ha  ca  ca  ha  ca  ca  
ha  ca  ca  ha  ca  ha  ha  ha  ca  ca  ca  ca  ca  ha  ca  ca  ca  ca  ca  ha  
ha  ca  ha  ca  ca  ha  ha  ha  ca  ca  ha  ca  ca  ha  ca  ca  ha  ca  ca  ha  
ca  ha  ha  ha  ca  ca  ca  ca  ca  ha  ca  ca  ca  ca  ca  ha  ha  ca  ha  ca  
ca  ha  ha  ha  ca  ca  ha  ca  ca  ha  ca  ca  ha  ca  ca  ha  ca  ha  ha  ha  
ca  ca  ca  ca  ca  ha  ca  ca  ca  ca  ca  ha  ha  ca  ha  ca  ca  ha  ha  ha  
ca  ca  ha  ca  ca  ha  ca  ca  ha  ca  ca  ha  ca  ha  ha  ha  ca  ca  ca  ca  
ca  ha  ca  ca  ca  ca  ca  ha  ha  ca  ha  ca  ca  ha  ha  ha  ca  ca  ha  ca  
ca  ha  ca  ca  ha  ca  ca  ha  ca  ha  ha  ha  ca  ca  ca  ca  ca  ha  ca  ca  
ca  ca  ca  ha  ha  ca  ha  ca  ca  ha  ha  ha  ca  ca  ha  ca  ca  ha  ca  ca  
ha  ca  ca  ha  ca  ha  ha  ha  ca  ca  ca  ca  ca  ha  ca  ca  ca  ca  ca  ha  
ha  ca  ha  ca  ca  ha  ha  ha  ca  ca  ha  ca  ca  ha  ca  ca  ha  ca  ca  ha  
ca  ha  ha  ha  ca  ca  ca  ca  ca  ha  ca  ca  ca  ca  ca  ha  ha  ca  ha  ca  
ca  ha  ha  ha  ca  ca  ha  ca  ca  ha  ca  ca  ha  ca  ca  ha  ca  ha  ha  ha  
ca  ca  ca  ca  ca  ha  ca  ca  ca  ca  ca  ha  ha  ca  ha  ca  ca  ha  ha  ha  
ca  ca  ha  ca  ca  ha  ca  ca  ha  ca  ca  ha  ca  ha  ha  ha  ca  ca  ca  ca  
ca  ha  ca  ca  ca  ca  ca  ha  ha  ca  ha  ca  ca  ha  ha  ha  ca  ca  ha  ca  
ca  ha  ca  ca  ha  ca  ca  ha  ca  ha  ha  ha  ca  ca  ca  ca  ca  ha  ca  ca  
ca  ca  ca  ha  ha  ca  ha  ca  ca  ha  ha  ha  ca  ca  ha  ca  ca  ha  ca  ca  
ha  ca  ca  ha  ca  ha  ha  ha  ca  ca  ca  ca  ca  ha  ca  ca  ca  ca  ca  ha  
ha  ca  ha  ca  ca  ha  ha  ha  ca  ca  ha  ca  ca  ha  ca  ca  ha  ca  ca  ha  
ca  ha  ha  ha  ca  ca  ca  ca  ca  ha  ca  ca  ca  ca  ca  ha  ha  ca  ha  ca  
ca  ha  ha  ha  ca  ca  ha  ca  ca  ha  ca  ca  ha  ca  ca  ha  ca  ha  ha  ha  
ca  ca  ca  ca  ca  ha  ca  ca  ca  ca  ca  ha  ha  ca  ha  ca  ca  ha  ha  ha  
ca  ca  ha  ca  ca  ha  ca  ca  ha  ca  ca  ha  ca  ha  ha  ha  ca  ca  ca  ca  
ca  ha  ca  ca  ca  ca  ca  ha  ha  ca  ha  ca  ca  ha  ha  ha  ca  ca  ha  ca  
ca  ha  ca  ca  ha  ca  ca  ha  ca  ha  ha  ha  ca  ca  ca  ca  ca  ha  ca  ca  
ca  ca  ca  ha  ha  ca  ha  ca  ca  ha  ha  ha  ca  ca  ha  ca  ca  ha  ca  ca  
ha  ca  ca  ha  ca  ha  ha  ha  ca  ca  ca  ca  ca  ha  ca  ca  ca  ca  ca  ha  
ha  ca  ha  ca  ca  ha  ha  ha  ca  ca  ha  ca  ca  ha  ca  ca  ha  ca  ca  ha  
ca  ha  ha  ha  ca  ca  ca  ca  ca  ha  ca  ca  ca  ca  ca  ha  ha  ca  ha  ca  
ca  ha  ha  ha  ca  ca  ha  ca  ca  ha  ca  ca  ha  ca  ca  ha  ca  ha  ha  ha  
ca  ca  ca  ca  ca  ha  ca  ca  ca  ca  ca  ha  ha  ca  ha  ca  ca  ha  ha  ha  
ca  ca  ha  ca  ca  ha  ca  ca  ha  ca  ca  ha  ca  ha  ha  ha  ca  ca  ca  ca  
ca  ha  ca  ca  ca  ca  ca  ha  ha  ca  ha  ca  ca  ha  ha  ha  ca  ca  ha  ca  
ca  ha  ca  ca  ha  ca  ca  ha  ca  ha  ha  ha  ca  ca  ca  ca  ca  ha  ca  ca  
ca  ca  ca  ha  ha  ca  ha  ca  ca  ha  ha  ha  ca  ca  ha  ca  ca  ha  ca  ca  
ha  ca  ca  ha  ca  ha  ha  ha  ca  ca  ca  ca  ca  ha  ca  ca  ca  ca  ca  ha  
ha  ca  ha  ca  ca  ha  ha  ha  ca  ca  ha  ca  ca  ha  ca  ca  ha  ca  ca  ha  
ca  ha  ha  ha  ca  ca  ca  ca  ca  ha  ca  ca  ca  ca  ca  ha  ha  ca  ha  ca  
ca  ha  ha  ha  ca  ca  ha  ca  ca  ha  ca  ca  ha  ca  ca  ha  ca  ha  ha  ha  
ca  ca  ca  ca  ca  ha  ca  ca  ca  ca  ca  ha  ha  ca  ha  ca  ca  ha  ha  ha  
ca  ca  ha  ca  ca  ha  ca  ca  ha  ca  ca  ha  ca  ha  ha  ha  ca  ca  ca  ca  
ca  ha  ca  ca  ca  ca  ca  ha  ha  ca  ha  ca  ca  ha  ha  ha  ca  ca  ha  ca  
ca  ha  ca  ca  ha  ca  ca  ha  ca  ha  ha  ha  ca  ca  ca  ca  ca  ha  ca  ca  
ca  ca  ca  ha  ha  ca  ha  ca  ca  ha  ha  ha  ca  ca  ha  ca  ca  ha  ca  ca  
ha  ca  ca  ha  ca  ha  ha  ha  ca  ca  ca  ca  ca  ha  ca  ca  ca  ca  ca  ha  
ha  ca  ha  ca  ca  ha  ha  ha  ca  ca  ha  ca  ca  ha  ca  ca  ha  ca  ca  ha  
ca  ha  ha  ha  ca  ca  ca  ca  ca  ha  ca  ca  ca  ca  ca  ha  ha  ca  ha  ca  
ca  ha  ha  ha  ca  ca  ha  ca  ca  ha  ca  ca  ha  ca  ca  ha  ca  ha  ha  ha  
ca  ca  ca  ca  ca  ha  ca  ca  ca  ca  ca  ha  ha  ca  ha  ca  ca  ha  ha  ha  
ca  ca  ha  ca  ca  ha  ca  ca  ha  ca  ca  ha  ca  ha  ha  ha  ca  ca  ca  ca  
ca  ha  ca  ca  ca  ca  ca  ha  ha  ca  ha  ca  ca  ha  ha  ha  ca  ca  ha  ca  
ca  ha  ca  ca  ha  ca  ca  ha  ca  ha  ha  ha  ca  ca  ca  ca  ca  ha  ca  ca  
ca  ca  ca  ha  ha  ca  ha  ca  ca  ha  ha  ha  ca  ca  ha  ca  ca  ha  ca  ca  
ha  ca  ca  ha  ca  ha  ha  ha  ca  ca  ca  ca  ca  ha  ca  ca  ca  ca  ca  ha  
ha  ca  ha  ca  ca  ha  ha  ha  ca  ca  ha  ca  ca  ha  ca  ca  ha  ca  ca  ha  
ca  ha  ha  ha  ca  ca  ca  ca  ca  ha  ca  ca  ca  ca  ca  ha  ha  ca  ha  ca  
ca  ha  ha  ha  ca  ca  ha  ca  ca  ha  ca  ca  ha  ca  ca  ha  ca  ha  ha  ha  
ca  ca  ca  ca  ca  ha  ca  ca  ca  ca  ca  ha  ha  ca  ha  ca  ca  ha  ha  ha  
ca  ca  ha  ca  ca  ha  ca  ca  ha  ca  ca  ha  ca  ha  ha  ha  ca  ca  ca  ca  
ca  ha  ca  ca  ca  ca  ca  ha  ha  ca  ha  ca  ca  ha  ha  ha  ca  ca  ha  ca  
ca  ha  ca  ca  ha  ca  ca  ha  ca  ha  ha  ha  ca  ca  ca  ca  ca  ha  ca  ca  
ca  ca  ca  ha  ha  ca  ha  ca  ca  ha  ha  ha  ca  ca  ha  ca  ca  ha  ca  ca  
ha  ca  ca  ha  ca  ha  ha  ha  ca  ca  ca  ca  ca  ha  ca  ca  ca  ca  ca  ha  
ha  ca  ha  ca  ca  ha  ha  ha  ca  ca  ha  ca  ca  ha  ca  ca  ha  ca  ca  ha  
ca  ha  ha  ha  ca  ca  ca  ca  ca  ha  ca  ca  ca  ca  ca  ha  ha  ca  ha  ca  
ca  ha  ha  ha  ca  ca  ha  ca  ca  ha  ca  ca  ha  ca  ca  ha  ca  ha  ha  ha  
ca  ca  ca  ca  ca  ha  ca  ca  ca  ca  ca  ha  ha  ca  ha  ca  ca  ha  ha  ha  
ca  ca  ha  ca  ca  ha  ca  ca  ha  ca  ca  ha  ca  ha  ha  ha  ca  ca  ca  ca  
ca  ha  ca  ca  ca  ca  ca  ha  ha  ca  ha  ca  ca  ha  ha  ha  ca  ca  ha  ca  
ca  ha  ca  ca  ha  ca  ca  ha  ca  ha  ha  ha  ca  ca  ca  ca  ca  ha  ca  ca  
ca  ca  ca  ha  ha  ca  ha  ca  ca  ha  ha  ha  ca  ca  ha  ca  ca  ha  ca  ca  
ha  ca  ca  ha  ca  ha  ha  ha  ca  ca  ca  ca  ca  ha  ca  ca  ca  ca  ca  ha  
ha  ca  ha  ca  ca  ha  ha  ha  ca  ca  ha  ca  ca  ha  ca  ca  ha  ca  ca  ha  
ca  ha  ha  ha  ca  ca  ca  ca  ca  ha  ca  ca  ca  ca  ca  ha  ha  ca  ha  ca  
ca  ha  ha  ha  ca  ca  ha  ca  ca  ha  ca  ca  ha  ca  ca  ha  ca  ha  ha  ha  
ca  ca  ca  ca  ca  ha  ca  ca  ca  ca  ca  ha  ha  ca  ha  ca  ca  ha  ha  ha  
ca  ca  ha  ca  ca  ha  ca  ca  ha  ca  ca  ha  ca  ha  ha  ha  ca  ca  ca  ca  
ca  ha  ca  ca  ca  ca  ca  ha  ha  ca  ha  ca  ca  ha  ha  ha  ca  ca  ha  ca  
ca  ha  ca  ca  ha  ca  ca  ha  ca  ha  ha  ha  ca  ca  ca  ca  ca  ha  ca  ca  
ca  ca  ca  ha  ha  ca  ha  ca  ca  ha  ha  ha  ca  ca  ha  ca  ca  ha  ca  ca  
ha  ca  ca  ha  ca  ha  ha  ha  ca  ca  ca  ca  ca  ha  ca  ca  ca  ca  ca  ha  
ha  ca  ha  ca  ca  ha  ha  ha  ca  ca  ha  ca  ca  ha  ca  ca  ha  ca  ca  ha  
ca  ha  ha  ha  ca  ca  ca  ca  ca  ha  ca  ca  ca  ca  ca  ha  ha  ca  ha  ca  
ca  ha  ha  ha  ca  ca  ha  ca  ca  ha  ca  ca  ha  ca  ca  ha  ca  ha  ha  ha  
ca  ca  ca  ca  ca  ha  ca  ca  ca  ca  ca  ha  ha  ca  ha  ca  ca  ha  ha  ha  
ca  ca  ha  ca  ca  ha  ca  ca  ha  ca  ca  ha  ca  ha  ha  ha  ca  ca  ca  ca  
ca  ha  ca  ca  ca  ca  ca  ha  ha  ca  ha  ca  ca  ha  ha  ha  ca  ca  ha  ca  
ca  ha  ca  ca  ha  ca  ca  ha  ca  ha  ha  ha  ca  ca  ca  ca  ca  ha  ca  ca  
ca  ca  ca  ha  ha  ca  ha  ca  ca  ha  ha  ha  ca  ca  ha  ca  ca  ha  ca  ca  
ha  ca  ca  ha  ca  ha  ha  ha  ca  ca  ca  ca  ca  ha  ca  ca  ca  ca  ca  ha  
ha  ca  ha  ca  ca  ha  ha  ha  ca  ca  ha  ca  ca  ha  ca  ca  ha  ca  ca  ha  
ca  ha  ha  ha  ca  ca  ca  ca  ca  ha  ca  ca  ca  ca  ca  ha  ha  ca  ha  ca  
ca  ha  ha  ha  ca  ca  ha  ca  ca  ha  ca  ca  ha  ca  ca  ha  ca  ha  ha  ha  
ca  ca  ca  ca  ca  ha  ca  ca  ca  ca  ca  ha  ha  ca  ha  ca  ca  ha  ha  ha  
ca  ca  ha  ca  ca  ha  ca  ca  ha  ca  ca  ha  ca  ha  ha  ha  ca  ca  ca  ca  
ca  ha  ca  ca  ca  ca  ca  ha  ha  ca  ha  ca  ca  ha  ha  ha  ca  ca  ha  ca  
ca  ha  ca  ca  ha  ca  ca  ha  ca  ha  ha  ha  ca  ca  ca  ca  ca  ha  ca  ca  
ca  ca  ca  ha  ha  ca  ha  ca  ca  ha  ha  ha  ca  ca  ha  ca  ca  ha  ca  ca  
ha  ca  ca  ha  ca  ha  ha  ha  ca  ca  ca  ca  ca  ha  ca  ca  ca  ca  ca  ha  
ha  ca  ha  ca  ca  ha  ha  ha  ca  ca  ha  ca  ca  ha  ca  ca  ha  ca  ca  ha  
ca  ha  ha  ha  ca  ca  ca  ca  ca  ha  ca  ca  ca  ca  ca  ha  ha  ca  ha  ca  
ca  ha  ha  ha  ca  ca  ha  ca  ca  ha  ca  ca  ha  ca  ca  ha  ca  ha  ha  ha  
ca  ca  ca  ca  ca  ha  ca  ca  ca  ca  ca  ha  ha  ca  ha  ca  ca  ha  ha  ha  
ca  ca  ha  ca  ca  ha  ca  ca  ha  ca  ca  ha  ca  ha  ha  ha  ca  ca  ca  ca  
ca  ha  ca  ca  ca  ca  ca  ha  ha  ca  ha  ca  ca  ha  ha  ha  ca  ca  ha  ca  
ca  ha  ca  ca  ha  ca  ca  ha  ca  ha  ha  ha  ca  ca  ca  ca  ca  ha  ca  ca  
ca  ca  ca  ha  ha  ca  ha  ca  ca  ha  ha  ha  ca  ca  ha  ca  ca  ha  ca  ca  
ha  ca  ca  ha  ca  ha  ha  ha  ca  ca  ca  ca  ca  ha  ca  ca  ca  ca  ca  ha  
ha  ca  ha  ca  ca  ha  ha  ha  ca  ca  ha  ca  ca  ha  ca  ca  ha  ca  ca  ha  
ca  ha  ha  ha  ca  ca  ca  ca  ca  ha  ca  ca  ca  ca  ca  ha  ha  ca  ha  ca  
ca  ha  ha  ha  ca  ca  ha  ca  ca  ha  ca  ca  ha  ca  ca  ha  ca  ha  ha  ha  
ca  ca  ca  ca  ca  ha  ca  ca  ca  ca  ca  ha  ha  ca  ha  ca  ca  ha  ha  ha  
ca  ca  ha  ca  ca  ha  ca  ca  ha  ca  ca  ha  ca  ha  ha  ha  ca  ca  ca  ca  
ca  ha  ca  ca  ca  ca  ca  ha  ha  ca  ha  ca  ca  ha  ha  ha  ca  ca  ha  ca  
ca  ha  ca  ca  ha  ca  ca  ha  ca  ha  ha  ha  ca  ca  ca  ca  ca  ha  ca  ca  
ca  ca  ca  ha  ha  ca  ha  ca  ca  ha  ha  ha  ca  ca  ha  ca  ca  ha  ca  ca  
ha  ca  ca  ha  ca  ha  ha  ha  ca  ca  ca  ca  ca  ha  ca  ca  ca  ca  ca  ha  
ha  ca  ha  ca  ca  ha  ha  ha  ca  ca  ha  ca  ca  ha  ca  ca  ha  ca  ca  ha  
ca  ha  ha  ha  ca  ca  ca  ca  ca  ha  ca  ca  ca  ca  ca  ha  ha  ca  ha  ca  
ca  ha  ha  ha  ca  ca  ha  ca  ca  ha  ca  ca  ha  ca  ca  ha  ca  ha  ha  ha  
ca  ca  ca  ca  ca  ha  ca  ca  ca  ca  ca  ha  ha  ca  ha  ca  ca  ha  ha  ha  
ca  ca  ha  ca  ca  ha  ca  ca  ha  ca  ca  ha  ca  ha  ha  ha  ca  ca  ca  ca  
ca  ha  ca  ca  ca  ca  ca  ha  ha  ca  ha  ca  ca  ha  ha  ha  ca  ca  ha  ca  
ca  ha  ca  ca  ha  ca  ca  ha  ca  ha  ha  ha  ca  ca  ca  ca  ca  ha  ca  ca  
ca  ca  ca  ha  ha  ca  ha  ca  ca  ha  ha  ha  ca  ca  ha  ca  ca  ha  ca  ca  
ha  ca  ca  ha  ca  ha  ha  ha  ca  ca  ca  ca  ca  ha  ca  ca  ca  ca  ca  ha  
ha  ca  ha  ca  ca  ha  ha  ha  ca  ca  ha  ca  ca  ha  ca  ca  ha  ca  ca  ha  
ca  ha  ha  ha  ca  ca  ca  ca  ca  ha  ca  ca  ca  ca  ca  ha  ha  ca  ha  ca  
ca  ha  ha  ha  ca  ca  ha  ca  ca  ha  ca  ca  ha  ca  ca  ha  ca  ha  ha  ha  
ca  ca  ca  ca  ca  ha  ca  ca  ca  ca  ca  ha  ha  ca  ha  ca  ca  ha  ha  ha  
ca  ca  ha  ca  ca  ha  ca  ca  ha  ca  ca  ha  ca  ha  ha  ha  ca  ca  ca  ca  
ca  ha  ca  ca  ca  ca  ca  ha  ha  ca  ha  ca  ca  ha  ha  ha  ca  ca  ha  ca  
ca  ha  ca  ca  ha  ca  ca  ha  ca  ha  ha  ha  ca  ca  ca  ca  ca  ha  ca  ca  
ca  ca  ca  ha  ha  ca  ha  ca  ca  ha  ha  ha  ca  ca  ha  ca  ca  ha  ca  ca  
ha  ca  ca  ha  ca  ha  ha  ha  ca  ca  ca  ca  ca  ha  ca  ca  ca  ca  ca  ha  
ha  ca  ha  ca  ca  ha  ha  ha  ca  ca  ha  ca  ca  ha  ca  ca  ha  ca  ca  ha  
ca  ha  ha  ha  ca  ca  ca  ca  ca  ha  ca  ca  ca  ca  ca  ha  ha  ca  ha  ca  
ca  ha  ha  ha  ca  ca  ha  ca  ca  ha  ca  ca  ha  ca  ca  ha  ca  ha  ha  ha  
ca  ca  ca  ca  ca  ha  ca  ca  ca  ca  ca  ha  ha  ca  ha  ca  ca  ha  ha  ha  
ca  ca  ha  ca  ca  ha  ca  ca  ha  ca  ca  ha  ca  ha  ha  ha  ca  ca  ca  ca  
ca  ha  ca  ca  ca  ca  ca  ha  ha  ca  ha  ca  ca  ha  ha  ha  ca  ca  ha  ca  
ca  ha  ca  ca  ha  ca  ca  ha  ca  ha  ha  ha  ca  ca  ca  ca  ca  ha  ca  ca  
ca  ca  ca  ha  ha  ca  ha  ca  ca  ha  ha  ha  ca  ca  ha  ca  ca  ha  ca  ca  
ha  ca  ca  ha  ca  ha  ha  ha  ca  ca  ca  ca  ca  ha  ca  ca  ca  ca  ca  ha  
ha  ca  ha  ca  ca  ha  ha  ha  ca  ca  ha  ca  ca  ha  ca  ca  ha  ca  ca  ha  
ca  ha  ha  ha  ca  ca  ca  ca  ca  ha  ca  ca  ca  ca  ca  ha  ha  ca  ha  ca  
ca  ha  ha  ha  ca  ca  ha  ca  ca  ha  ca  ca  ha  ca  ca  ha  ca  ha  ha  ha  
ca  ca  ca  ca  ca  ha  ca  ca  ca  ca  ca  ha  ha  ca  ha  ca  ca  ha  ha  ha  
ca  ca  ha  ca  ca  ha  ca  ca  ha  ca  ca  ha  ca  ha  ha  ha  ca  ca  ca  ca  
ca  ha  ca  ca  ca  ca  ca  ha  ha  ca  ha  ca  ca  ha  ha  ha  ca  ca  ha  ca  
ca  ha  ca  ca  ha  ca  ca  ha  ca  ha  ha  ha  ca  ca  ca  ca  ca  ha  ca  ca  
ca  ca  ca  ha  ha  ca  ha  ca  ca  ha  ha  ha  ca  ca  ha  ca  ca  ha  ca  ca  
ha  ca  ca  ha  ca  ha  ha  ha  ca  ca  ca  ca  ca  ha  ca  ca  ca  ca  ca  ha  
ha  ca  ha  ca  ca  ha  ha  ha  ca  ca  ha  ca  ca  ha  ca  ca  ha  ca  ca  ha  
ca  ha  ha  ha  ca  ca  ca  ca  ca  ha  ca  ca  ca  ca  ca  ha  ha  ca  ha  ca  
ca  ha  ha  ha  ca  ca  ha  ca  ca  ha  ca  ca  ha  ca  ca  ha  ca  ha  ha  ha  
ca  ca  ca  ca  ca  ha  ca  ca  ca  ca  ca  ha  ha  ca  ha  ca  ca  ha  ha  ha  
ca  ca  ha  ca  ca  ha  ca  ca  ha  ca  ca  ha  ca  ha  ha  ha  ca  ca  ca  ca  
ca  ha  ca  ca  ca  ca  ca  ha  ha  ca  ha  ca  ca  ha  ha  ha  ca  ca  ha  ca  
ca  ha  ca  ca  ha  ca  ca  ha  ca  ha  ha  ha  ca  ca  ca  ca  ca  ha  ca  ca  
ca  ca  ca  ha  ha  ca  ha  ca  ca  ha  ha  ha  ca  ca  ha  ca  ca  ha  ca  ca  
ha  ca  ca  ha  ca  ha  ha  ha  ca  ca  ca  ca  ca  ha  ca  ca  ca  ca  ca  ha  
ha  ca  ha  ca  ca  ha  ha  ha  ca  ca  ha  ca  ca  ha  ca  ca  ha  ca  ca  ha  
ca  ha  ha  ha  ca  ca  ca  ca  ca  ha  ca  ca  ca  ca  ca  ha  ha  ca  ha  ca  
ca  ha  ha  ha  ca  ca  ha  ca  ca  ha  ca  ca  ha  ca  ca  ha  ca  ha  ha  ha  
ca  ca  ca  ca  ca  ha  ca  ca  ca  ca  ca  ha  ha  ca  ha  ca  ca  ha  ha  ha  
ca  ca  ha  ca  ca  ha  ca  ca  ha  ca  ca  ha  ca  ha  ha  ha  ca  ca  ca  ca  
ca  ha  ca  ca  ca  ca  ca  ha  ha  ca  ha  ca  ca  ha  ha  ha  ca  ca  ha  ca  
ca  ha  ca  ca  ha  ca  ca  ha  ca  ha  ha  ha  ca  ca  ca  ca  ca  ha  ca  ca  
ca  ca  ca  ha  ha  ca  ha  ca  ca  ha  ha  ha  ca  ca  ha  ca  ca  ha  ca  ca  
ha  ca  ca  ha  ca  ha  ha  ha  ca  ca  ca  ca  ca  ha  ca  ca  ca  ca  ca  ha  
ha  ca  ha  ca  ca  ha  ha  ha  ca  ca  ha  ca  ca  ha  ca  ca  ha  ca  ca  ha  
ca  ha  ha  ha  ca  ca  ca  ca  ca  ha  ca  ca  ca  ca  ca  ha  ha  ca  ha  ca  
ca  ha  ha  ha  ca  ca  ha  ca  ca  ha  ca  ca  ha  ca  ca  ha  ca  ha  ha  ha  
ca  ca  ca  ca  ca  ha  ca  ca  ca  ca  ca  ha  ha  ca  ha  ca  ca  ha  ha  ha  
ca  ca  ha  ca  ca  ha  ca  ca  ha  ca  ca  ha  ca  ha  ha  ha  ca  ca  ca  ca  
ca  ha  ca  ca  ca  ca  ca  ha  ha  ca  ha  ca  ca  ha  ha  ha  ca  ca  ha  ca  
ca  ha  ca  ca  ha  ca  ca  ha  ca  ha  ha  ha  ca  ca  ca  ca  ca  ha  ca  ca  
ca  ca  ca  ha  ha  ca  ha  ca  ca  ha  ha  ha  ca  ca  ha  ca  ca  ha  ca  ca  
ha  ca  ca  ha  ca  ha  ha  ha  ca  ca  ca  ca  ca  ha  ca  ca  ca  ca  ca  ha  
ha  ca  ha  ca  ca  ha  ha  ha  ca  ca  ha  ca  ca  ha  ca  ca  ha  ca  ca  ha  
ca  ha  ha  ha  ca  ca  ca  ca  ca  ha  ca  ca  ca  ca  ca  ha  ha  ca  ha  ca  
ca  ha  ha  ha  ca  ca  ha  ca  ca  ha  ca  ca  ha  ca  ca  ha  ca  ha  ha  ha  
ca  ca  ca  ca  ca  ha  ca  ca  ca  ca  ca  ha  ha  ca  ha  ca  ca  ha  ha  ha  
ca  ca  ha  ca  ca  ha  ca  ca  ha  ca  ca  ha  ca  ha  ha  ha  ca  ca  ca  ca  
ca  ha  ca  ca  ca  ca  ca  ha  ha  ca  ha  ca  ca  ha  ha  ha  ca  ca  ha  ca  
ca  ha  ca  ca  ha  ca  ca  ha  ca  ha  ha  ha  ca  ca  ca  ca  ca  ha  ca  ca  
ca  ca  ca  ha  ha  ca  ha  ca  ca  ha  ha  ha  ca  ca  ha  ca  ca  ha  ca  ca  
ha  ca  ca  ha  ca  ha  ha  ha  ca  ca  ca  ca  ca  ha  ca  ca  ca  ca  ca  ha  
ha  ca  ha  ca  ca  ha  ha  ha  ca  ca  ha  ca  ca  ha  ca  ca  ha  ca  ca  ha  
ca  ha  ha  ha  ca  ca  ca  ca  ca  ha  ca  ca  ca  ca  ca  ha  ha  ca  ha  ca  
ca  ha  ha  ha  ca  ca  ha  ca  ca  ha  ca  ca  ha  ca  ca  ha  ca  ha  ha  ha  
ca  ca  ca  ca  ca  ha  ca  ca  ca  ca  ca  ha  ha  ca  ha  ca  ca  ha  ha  ha  
ca  ca  ha  ca  ca  ha  ca  ca  ha  ca  ca  ha  ca  ha  ha  ha  ca  ca  ca  ca  
ca  ha  ca  ca  ca  ca  ca  ha  ha  ca  ha  ca  ca  ha  ha  ha  ca  ca  ha  ca  
ca  ha  ca  ca  ha  ca  ca  ha  ca  ha  ha  ha  ca  ca  ca  ca  ca  ha  ca  ca  
ca  ca  ca  ha  ha  ca  ha  ca  ca  ha  ha  ha  ca  ca  ha  ca  ca  ha  ca  ca  
ha  ca  ca  ha  ca  ha  ha  ha  ca  ca  ca  ca  ca  ha  ca  ca  ca  ca  ca  ha  
ha  ca  ha  ca  ca  ha  ha  ha  ca  ca  ha  ca  ca  ha  ca  ca  ha  ca  ca  ha  
ca  ha  ha  ha  ca  ca  ca  ca  ca  ha  ca  ca  ca  ca  ca  ha  ha  ca  ha  ca  
ca  ha  ha  ha  ca  ca  ha  ca  ca  ha  ca  ca  ha  ca  ca  ha  ca  ha  ha  ha  
ca  ca  ca  ca  ca  ha  ca  ca  ca  ca  ca  ha  ha  ca  ha  ca  ca  ha  ha  ha  
ca  ca  ha  ca  ca  ha  ca  ca  ha  ca  ca  ha  ca  ha  ha  ha  ca  ca  ca  ca  
ca  ha  ca  ca  ca  ca  ca  ha  ha  ca  ha  ca  ca  ha  ha  ha  ca  ca  ha  ca  
ca  ha  ca  ca  ha  ca  ca  ha  ca  ha  ha  ha  ca  ca  ca  ca  ca  ha  ca  ca  
ca  ca  ca  ha  ha  ca  ha  ca  ca  ha  ha  ha  ca  ca  ha  ca  ca  ha  ca  ca  
ha  ca  ca  ha  ca  ha  ha  ha  ca  ca  ca  ca  ca  ha  ca  ca  ca  ca  ca  ha  
ha  ca  ha  ca  ca  ha  ha  ha  ca  ca  ha  ca  ca  ha  ca  ca  ha  ca  ca  ha  
ca  ha  ha  ha  ca  ca  ca  ca  ca  ha  ca  ca  ca  ca  ca  ha  ha  ca  ha  ca  
ca  ha  ha  ha  ca  ca  ha  ca  ca  ha  ca  ca  ha  ca  ca  ha  ca  ha  ha  ha  
ca  ca  ca  ca  ca  ha  ca  ca  ca  ca  ca  ha  ha  ca  ha  ca  ca  ha  ha  ha  
ca  ca  ha  ca  ca  ha  ca  ca  ha  ca  ca  ha  ca  ha  ha  ha  ca  ca  ca  ca  
ca  ha  ca  ca  ca  ca  ca  ha  ha  ca  ha  ca  ca  ha  ha  ha  ca  ca  ha  ca  
ca  ha  ca  ca  ha  ca  ca  ha  ca  ha  ha  ha  ca  ca  ca  ca  ca  ha  ca  ca  
ca  ca  ca  ha  ha  ca  ha  ca  ca  ha  ha  ha  ca  ca  ha  ca  ca  ha  ca  ca  
ha  ca  ca  ha  ca  ha  ha  ha  ca  ca  ca  ca  ca  ha  ca  ca  ca  ca  ca  ha  
ha  ca  ha  ca  ca  ha  ha  ha  ca  ca  ha  ca  ca  ha  ca  ca  ha  ca  ca  ha  
ca  ha  ha  ha  ca  ca  ca  ca  ca  ha  ca  ca  ca  ca  ca  ha  ha  ca  ha  ca  
ca  ha  ha  ha  ca  ca  ha  ca  ca  ha  ca  ca  ha  ca  ca  ha  ca  ha  ha  ha  
ca  ca  ca  ca  ca  ha  ca  ca  ca  ca  ca  ha  ha  ca  ha  ca  ca  ha  ha  ha  
ca  ca  ha  ca  ca  ha  ca  ca  ha  ca  ca  ha  ca  ha  ha  ha  ca  ca  ca  ca  
ca  ha  ca  ca  ca  ca  ca  ha  ha  ca  ha  ca  ca  ha  ha  ha  ca  ca  ha  ca  
ca  ha  ca  ca  ha  ca  ca  ha  ca  ha  ha  ha  ca  ca  ca  ca  ca  ha  ca  ca  
ca  ca  ca  ha  ha  ca  ha  ca  ca  ha  ha  ha  ca  ca  ha  ca  ca  ha  ca  ca  
ha  ca  ca  ha  ca  ha  ha  ha  ca  ca  ca  ca  ca  ha  ca  ca  ca  ca  ca  ha  
ha  ca  ha  ca  ca  ha  ha  ha  ca  ca  ha  ca  ca  ha  ca  ca  ha  ca  ca  ha  
ca  ha  ha  ha  ca  ca  ca  ca  ca  ha  ca  ca  ca  ca  ca  ha  ha  ca  ha  ca  
ca  ha  ha  ha  ca  ca  ha  ca  ca  ha  ca  ca  ha  ca  ca  ha  ca  ha  ha  ha  
ca  ca  ca  ca  ca  ha  ca  ca  ca  ca  ca  ha  ha  ca  ha  ca  ca  ha  ha  ha  
ca  ca  ha  ca  ca  ha  ca  ca  ha  ca  ca  ha  ca  ha  ha  ha  ca  ca  ca  ca  
ca  ha  ca  ca  ca  ca  ca  ha  ha  ca  ha  ca  ca  ha  ha  ha  ca  ca  ha  ca  
ca  ha  ca  ca  ha  ca  ca  ha  ca  ha  ha  ha  ca  ca  ca  ca  ca  ha  ca  ca  
ca  ca  ca  ha  ha  ca  ha  ca  ca  ha  ha  ha  ca  ca  ha  ca  ca  ha  ca  ca  
ha  ca  ca  ha  ca  ha  ha  ha  ca  ca  ca  ca  ca  ha  ca  ca  ca  ca  ca  ha  
ha  ca  ha  ca  ca  ha  ha  ha  ca  ca  ha  ca  ca  ha  ca  ca  ha  ca  ca  ha  
ca  ha  ha  ha  ca  ca  ca  ca  ca  ha  ca  ca  ca  ca  ca  ha  ha  ca  ha  ca  
ca  ha  ha  ha  ca  ca  ha  ca  ca  ha  ca  ca  ha  ca  ca  ha  ca  ha  ha  ha  
ca  ca  ca  ca  ca  ha  ca  ca  ca  ca  ca  ha  ha  ca  ha  ca  ca  ha  ha  ha  
ca  ca  ha  ca  ca  ha  ca  ca  ha  ca  ca  ha  ca  ha  ha  ha  ca  ca  ca  ca  
ca  ha  ca  ca  ca  ca  ca  ha  ha  ca  ha  ca  ca  ha  ha  ha  ca  ca  ha  ca  
ca  ha  ca  ca  ha  ca  ca  ha  ca  ha  ha  ha  ca  ca  ca  ca  ca  ha  ca  ca  
ca  ca  ca  ha  ha  ca  ha  ca  ca  ha  ha  ha  ca  ca  ha  ca  ca  ha  ca  ca  
ha  ca  ca  ha  ca  ha  ha  ha  ca  ca  ca  ca  ca  ha  ca  ca  ca  ca  ca  ha  
ha  ca  ha  ca  ca  ha  ha  ha  ca  ca  ha  ca  ca  ha  ca  ca  ha  ca  ca  ha  
ca  ha  ha  ha  ca  ca  ca  ca  ca  ha  ca  ca  ca  ca  ca  ha  ha  ca  ha  ca  
ca  ha  ha  ha  ca  ca  ha  ca  ca  ha  ca  ca  ha  ca  ca  ha  ca  ha  ha  ha  
ca  ca  ca  ca  ca  ha  ca  ca  ca  ca  ca  ha  ha  ca  ha  ca  ca  ha  ha  ha  
ca  ca  ha  ca  ca  ha  ca  ca  ha  ca  ca  ha  ca  ha  ha  ha  ca  ca  ca  ca  
ca  ha  ca  ca  ca  ca  ca  ha  ha  ca  ha  ca  ca  ha  ha  ha  ca  ca  ha  ca  
ca  ha  ca  ca  ha  ca  ca  ha  ca  ha  ha  ha  ca  ca  ca  ca  ca  ha  ca  ca  
ca  ca  ca  ha  ha  ca  ha  ca  ca  ha  ha  ha  ca  ca  ha  ca  ca  ha  ca  ca  
ha  ca  ca  ha  ca  ha  ha  ha  ca  ca  ca  ca  ca  ha  ca  ca  ca  ca  ca  ha  
ha  ca  ha  ca  ca  ha  ha  ha  ca  ca  ha  ca  ca  ha  ca  ca  ha  ca  ca  ha  
ca  ha  ha  ha  ca  ca  ca  ca  ca  ha  ca  ca  ca  ca  ca  ha  ha  ca  ha  ca  
ca  ha  ha  ha  ca  ca  ha  ca  ca  ha  ca  ca  ha  ca  ca  ha  ca  ha  ha  ha  
ca  ca  ca  ca  ca  ha  ca  ca  ca  ca  ca  ha  ha  ca  ha  ca  ca  ha  ha  ha  
ca  ca  ha  ca  ca  ha  ca  ca  ha  ca  ca  ha  ca  ha  ha  ha  ca  ca  ca  ca  
ca  ha  ca  ca  ca  ca  ca  ha  ha  ca  ha  ca  ca  ha  ha  ha  ca  ca  ha  ca  
ca  ha  ca  ca  ha  ca  ca  ha  ca  ha  ha  ha  ca  ca  ca  ca  ca  ha  ca  ca  
ca  ca  ca  ha  ha  ca  ha  ca  ca  ha  ha  ha  ca  ca  ha  ca  ca  ha  ca  ca  
ha  ca  ca  ha  ca  ha  ha  ha  ca  ca  ca  ca  ca  ha  ca  ca  ca  ca  ca  ha  
ha  ca  ha  ca  ca  ha  ha  ha  ca  ca  ha  ca  ca  ha  ca  ca  ha  ca  ca  ha  
ca  ha  ha  ha  ca  ca  ca  ca  ca  ha  ca  ca  ca  ca  ca  ha  ha  ca  ha  ca  
ca  ha  ha  ha  ca  ca  ha  ca  ca  ha  ca  ca  ha  ca  ca  ha  ca  ha  ha  ha  
ca  ca  ca  ca  ca  ha  ca  ca  ca  ca  ca  ha  ha  ca  ha  ca  ca  ha  ha  ha  
ca  ca  ha  ca  ca  ha  ca  ca  ha  ca  ca  ha  ca  ha  ha  ha  ca  ca  ca  ca  
ca  ha  ca  ca  ca  ca  ca  ha  ha  ca  ha  ca  ca  ha  ha  ha  ca  ca  ha  ca  
ca  ha  ca  ca  ha  ca  ca  ha  ca  ha  ha  ha  ca  ca  ca  ca  ca  ha  ca  ca  
ca  ca  ca  ha  ha  ca  ha  ca  ca  ha  ha  ha  ca  ca  ha  ca  ca  ha  ca  ca  
ha  ca  ca  ha  ca  ha  ha  ha  ca  ca  ca  ca  ca  ha  ca  ca  ca  ca  ca  ha  
ha  ca  ha  ca  ca  ha  ha  ha  ca  ca  ha  ca  ca  ha  ca  ca  ha  ca  ca  ha  
ca  ha  ha  ha  ca  ca  ca  ca  ca  ha  ca  ca  ca  ca  ca  ha  ha  ca  ha  ca  
ca  ha  ha  ha  ca  ca  ha  ca  ca  ha  ca  ca  ha  ca  ca  ha  ca  ha  ha  ha  
ca  ca  ca  ca  ca  ha  ca  ca  ca  ca  ca  ha  ha  ca  ha  ca  ca  ha  ha  ha  
ca  ca  ha  ca  ca  ha  ca  ca  ha  ca  ca  ha  ca  ha  ha  ha  ca  ca  ca  ca  
ca  ha  ca  ca  ca  ca  ca  ha  ha  ca  ha  ca  ca  ha  ha  ha  ca  ca  ha  ca  
ca  ha  ca  ca  ha  ca  ca  ha  ca  ha  ha  ha  ca  ca  ca  ca  ca  ha  ca  ca  
ca  ca  ca  ha  ha  ca  ha  ca  ca  ha  ha  ha  ca  ca  ha  ca  ca  ha  ca  ca  
ha  ca  ca  ha  ca  ha  ha  ha  ca  ca  ca  ca  ca  ha  ca  ca  ca  ca  ca  ha  
ha  ca  ha  ca  ca  ha  ha  ha  ca  ca  ha  ca  ca  ha  ca  ca  ha  ca  ca  ha  
ca  ha  ha  ha  ca  ca  ca  ca  ca  ha  ca  ca  ca  ca  ca  ha  ha  ca  ha  ca  
ca  ha  ha  ha  ca  ca  ha  ca  ca  ha  ca  ca  ha  ca  ca  ha  ca  ha  ha  ha  
ca  ca  ca  ca  ca  ha  ca  ca  ca  ca  ca  ha  ha  ca  ha  ca  ca  ha  ha  ha  
ca  ca  ha  ca  ca  ha  ca  ca  ha  ca  ca  ha  ca  ha  ha  ha  ca  ca  ca  ca  
ca  ha  ca  ca  ca  ca  ca  ha  ha  ca  ha  ca  ca  ha  ha  ha  ca  ca  ha  ca  
ca  ha  ca  ca  ha  ca  ca  ha  ca  ha  ha  ha  ca  ca  ca  ca  ca  ha  ca  ca  
ca  ca  ca  ha  ha  ca  ha  ca  ca  ha  ha  ha  ca  ca  ha  ca  ca  ha  ca  ca  
ha  ca  ca  ha  ca  ha  ha  ha  ca  ca  ca  ca  ca  ha  ca  ca  ca  ca  ca  ha  
ha  ca  ha  ca  ca  ha  ha  ha  ca  ca  ha  ca  ca  ha  ca  ca  ha  ca  ca  ha  
ca  ha  ha  ha  ca  ca  ca  ca  ca  ha  ca  ca  ca  ca  ca  ha  ha  ca  ha  ca  
ca  ha  ha  ha  ca  ca  ha  ca  ca  ha  ca  ca  ha  ca  ca  ha  ca  ha  ha  ha  
ca  ca  ca  ca  ca  ha  ca  ca  ca  ca  ca  ha  ha  ca  ha  ca  ca  ha  ha  ha  
ca  ca  ha  ca  ca  ha  ca  ca  ha  ca  ca  ha  ca  ha  ha  ha  ca  ca  ca  ca  
ca  ha  ca  ca  ca  ca  ca  ha  ha  ca  ha  ca  ca  ha  ha  ha  ca  ca  ha  ca  
ca  ha  ca  ca  ha  ca  ca  ha  ca  ha  ha  ha  ca  ca  ca  ca  ca  ha  ca  ca  
ca  ca  ca  ha  ha  ca  ha  ca  ca  ha  ha  ha  ca  ca  ha  ca  ca  ha  ca  ca  
ha  ca  ca  ha  ca  ha  ha  ha  ca  ca  ca  ca  ca  ha  ca  ca  ca  ca  ca  ha  
ha  ca  ha  ca  ca  ha  ha  ha  ca  ca  ha  ca  ca  ha  ca  ca  ha  ca  ca  ha  
ca  ha  ha  ha  ca  ca  ca  ca  ca  ha  ca  ca  ca  ca  ca  ha  ha  ca  ha  ca  
ca  ha  ha  ha  ca  ca  ha  ca  ca  ha  ca  ca  ha  ca  ca  ha  ca  ha  ha  ha  
ca  ca  ca  ca  ca  ha  ca  ca  ca  ca  ca  ha  ha  ca  ha  ca  ca  ha  ha  ha  
ca  ca  ha  ca  ca  ha  ca  ca  ha  ca  ca  ha  ca  ha  ha  ha  ca  ca  ca  ca  
ca  ha  ca  ca  ca  ca  ca  ha  ha  ca  ha  ca  ca  ha  ha  ha  ca  ca  ha  ca  
ca  ha  ca  ca  ha  ca  ca  ha  ca  ha  ha  ha  ca  ca  ca  ca  ca  ha  ca  ca  
ca  ca  ca  ha  ha  ca  ha  ca  ca  ha  ha  ha  ca  ca  ha  ca  ca  ha  ca  ca  
ha  ca  ca  ha  ca  ha  ha  ha  ca  ca  ca  ca  ca  ha  ca  ca  ca  ca  ca  ha  
ha  ca  ha  ca  ca  ha  ha  ha  ca  ca  ha  ca  ca  ha  ca  ca  ha  ca  ca  ha  
ca  ha  ha  ha  ca  ca  ca  ca  ca  ha  ca  ca  ca  ca  ca  ha  ha  ca  ha  ca  
ca  ha  ha  ha  ca  ca  ha  ca  ca  ha  ca  ca  ha  ca  ca  ha  ca  ha  ha  ha  
ca  ca  ca  ca  ca  ha  ca  ca  ca  ca  ca  ha  ha  ca  ha  ca  ca  ha  ha  ha  
ca  ca  ha  ca  ca  ha  ca  ca  ha  ca  ca  ha  ca  ha  ha  ha  ca  ca  ca  ca  
ca  ha  ca  ca  ca  ca  ca  ha  ha  ca  ha  ca  ca  ha  ha  ha  ca  ca  ha  ca  
ca  ha  ca  ca  ha  ca  ca  ha  ca  ha  ha  ha  ca  ca  ca  ca  ca  ha  ca  ca  
ca  ca  ca  ha  ha  ca  ha  ca  ca  ha  ha  ha  ca  ca  ha  ca  ca  ha  ca  ca  
ha  ca  ca  ha  ca  ha  ha  ha  ca  ca  ca  ca  ca  ha  ca  ca  ca  ca  ca  ha  
ha  ca  ha  ca  ca  ha  ha  ha  ca  ca  ha  ca  ca  ha  ca  ca  ha  ca  ca  ha  
ca  ha  ha  ha  ca  ca  ca  ca  ca  ha  ca  ca  ca  ca  ca  ha  ha  ca  ha  ca  
ca  ha  ha  ha  ca  ca  ha  ca  ca  ha  ca  ca  ha  ca  ca  ha  ca  ha  ha  ha  
ca  ca  ca  ca  ca  ha  ca  ca  ca  ca  ca  ha  ha  ca  ha  ca  ca  ha  ha  ha  
ca  ca  ha  ca  ca  ha  ca  ca  ha  ca  ca  ha  ca  ha  ha  ha  ca  ca  ca  ca  
ca  ha  ca  ca  ca  ca  ca  ha  ha  ca  ha  ca  ca  ha  ha  ha  ca  ca  ha  ca  
ca  ha  ca  ca  ha  ca  ca  ha  ca  ha  ha  ha  ca  ca  ca  ca  ca  ha  ca  ca  
ca  ca  ca  ha  ha  ca  ha  ca  ca  ha  ha  ha  ca  ca  ha  ca  ca  ha  ca  ca  
ha  ca  ca  ha  ca  ha  ha  ha  ca  ca  ca  ca  ca  ha  ca  ca  ca  ca  ca  ha  
ha  ca  ha  ca  ca  ha  ha  ha  ca  ca  ha  ca  ca  ha  ca  ca  ha  ca  ca  ha  
ca  ha  ha  ha  ca  ca  ca  ca  ca  ha  ca  ca  ca  ca  ca  ha  ha  ca  ha  ca  
ca  ha  ha  ha  ca  ca  ha  ca  ca  ha  ca  ca  ha  ca  ca  ha  ca  ha  ha  ha  
ca  ca  ca  ca  ca  ha  ca  ca  ca  ca  ca  ha  ha  ca  ha  ca  ca  ha  ha  ha  
ca  ca  ha  ca  ca  ha  ca  ca  ha  ca  ca  ha  ca  ha  ha  ha  ca  ca  ca  ca  
ca  ha  ca  ca  ca  ca  ca  ha  ha  ca  ha  ca  ca  ha  ha  ha  ca  ca  ha  ca  
ca  ha  ca  ca  ha  ca  ca  ha  ca  ha  ha  ha  ca  ca  ca  ca  ca  ha  ca  ca  
ca  ca  ca  ha  ha  ca  ha  ca  ca  ha  ha  ha  ca  ca  ha  ca  ca  ha  ca  ca  
ha  ca  ca  ha  ca  ha  ha  ha  ca  ca  ca  ca  ca  ha  ca  ca  ca  ca  ca  ha  
ha  ca  ha  ca  ca  ha  ha  ha  ca  ca  ha  ca  ca  ha  ca  ca  ha  ca  ca  ha  
ca  ha  ha  ha  ca  ca  ca  ca  ca  ha  ca  ca  ca  ca  ca  ha  ha  ca  ha  ca  
ca  ha  ha  ha  ca  ca  ha  ca  ca  ha  ca  ca  ha  ca  ca  ha  ca  ha  ha  ha  
ca  ca  ca  ca  ca  ha  ca  ca  ca  ca  ca  ha  ha  ca  ha  ca  ca  ha  ha  ha  
ca  ca  ha  ca  ca  ha  ca  ca  ha  ca  ca  ha  ca  ha  ha  ha  ca  ca  ca  ca  
ca  ha  ca  ca  ca  ca  ca  ha  ha  ca  ha  ca  ca  ha  ha  ha  ca  ca  ha  ca  
ca  ha  ca  ca  ha  ca  ca  ha  ca  ha  ha  ha  ca  ca  ca  ca  ca  ha  ca  ca  
ca  ca  ca  ha  ha  ca  ha  ca  ca  ha  ha  ha  ca  ca  ha  ca  ca  ha  ca  ca  
ha  ca  ca  ha  ca  ha  ha  ha  ca  ca  ca  ca  ca  ha  ca  ca  ca  ca  ca  ha  
ha  ca  ha  ca  ca  ha  ha  ha  ca  ca  ha  ca  ca  ha  ca  ca  ha  ca  ca  ha  
ca  ha  ha  ha  ca  ca  ca  ca  ca  ha  ca  ca  ca  ca  ca  ha  ha  ca  ha  ca  
ca  ha  ha  ha  ca  ca  ha  ca  ca  ha  ca  ca  ha  ca  ca  ha  ca  ha  ha  ha  
ca  ca  ca  ca  ca  ha  ca  ca  ca  ca  ca  ha  ha  ca  ha  ca  ca  ha  ha  ha  
ca  ca  ha  ca  ca  ha  ca  ca  ha  ca  ca  ha  ca  ha  ha  ha  ca  ca  ca  ca  
ca  ha  ca  ca  ca  ca  ca  ha  ha  ca  ha  ca  ca  ha  ha  ha  ca  ca  ha  ca  
ca  ha  ca  ca  ha  ca  ca  ha  ca  ha  ha  ha  ca  ca  ca  ca  ca  ha  ca  ca  
ca  ca  ca  ha  ha  ca  ha  ca  ca  ha  ha  ha  ca  ca  ha  ca  ca  ha  ca  ca  
ha  ca  ca  ha  ca  ha  ha  ha  ca  ca  ca  ca  ca  ha  ca  ca  ca  ca  ca  ha  
ha  ca  ha  ca  ca  ha  ha  ha  ca  ca  ha  ca  ca  ha  ca  ca  ha  ca  ca  ha  
ca  ha  ha  ha  ca  ca  ca  ca  ca  ha  ca  ca  ca  ca  ca  ha  ha  ca  ha  ca  
ca  ha  ha  ha  ca  ca  ha  ca  ca  ha  ca  ca  ha  ca  ca  ha  ca  ha  ha  ha  
ca  ca  ca  ca  ca  ha  ca  ca  ca  ca  ca  ha  ha  ca  ha  ca  ca  ha  ha  ha  
ca  ca  ha  ca  ca  ha  ca  ca  ha  ca  ca  ha  ca  ha  ha  ha  ca  ca  ca  ca  
ca  ha  ca  ca  ca  ca  ca  ha  ha  ca  ha  ca  ca  ha  ha  ha  ca  ca  ha  ca  
ca  ha  ca  ca  ha  ca  ca  ha  ca  ha  ha  ha  ca  ca  ca  ca  ca  ha  ca  ca  
ca  ca  ca  ha  ha  ca  ha  ca  ca  ha  ha  ha  ca  ca  ha  ca  ca  ha  ca  ca  
ha  ca  ca  ha  ca  ha  ha  ha  ca  ca  ca  ca  ca  ha  ca  ca  ca  ca  ca  ha  
ha  ca  ha  ca  ca  ha  ha  ha  ca  ca  ha  ca  ca  ha  ca  ca  ha  ca  ca  ha  
ca  ha  ha  ha  ca  ca  ca  ca  ca  ha  ca  ca  ca  ca  ca  ha  ha  ca  ha  ca  
ca  ha  ha  ha  ca  ca  ha  ca  ca  ha  ca  ca  ha  ca  ca  ha  ca  ha  ha  ha  
ca  ca  ca  ca  ca  ha  ca  ca  ca  ca  ca  ha  ha  ca  ha  ca  ca  ha  ha  ha  
ca  ca  ha  ca  ca  ha  ca  ca  ha  ca  ca  ha  ca  ha  ha  ha  ca  ca  ca  ca  
ca  ha  ca  ca  ca  ca  ca  ha  ha  ca  ha  ca  ca  ha  ha  ha  ca  ca  ha  ca  
ca  ha  ca  ca  ha  ca  ca  ha  ca  ha  ha  ha  ca  ca  ca  ca  ca  ha  ca  ca  
ca  ca  ca  ha  ha  ca  ha  ca  ca  ha  ha  ha  ca  ca  ha  ca  ca  ha  ca  ca  
ha  ca  ca  ha  ca  ha  ha  ha  ca  ca  ca  ca  ca  ha  ca  ca  ca  ca  ca  ha  
ha  ca  ha  ca  ca  ha  ha  ha  ca  ca  ha  ca  ca  ha  ca  ca  ha  ca  ca  ha  
ca  ha  ha  ha  ca  ca  ca  ca  ca  ha  ca  ca  ca  ca  ca  ha  ha  ca  ha  ca  
ca  ha  ha  ha  ca  ca  ha  ca  ca  ha  ca  ca  ha  ca  ca  ha  ca  ha  ha  ha  
ca  ca  ca  ca  ca  ha  ca  ca  ca  ca  ca  ha  ha  ca  ha  ca  ca  ha  ha  ha  
ca  ca  ha  ca  ca  ha  ca  ca  ha  ca  ca  ha  ca  ha  ha  ha  ca  ca  ca  ca  
ca  ha  ca  ca  ca  ca  ca  ha  ha  ca  ha  ca  ca  ha  ha  ha  ca  ca  ha  ca  
ca  ha  ca  ca  ha  ca  ca  ha  ca  ha  ha  ha  ca  ca  ca  ca  ca  ha  ca  ca  
ca  ca  ca  ha  ha  ca  ha  ca  ca  ha  ha  ha  ca  ca  ha  ca  ca  ha  ca  ca  
ha  ca  ca  ha  ca  ha  ha  ha  ca  ca  ca  ca  ca  ha  ca  ca  ca  ca  ca  ha  
ha  ca  ha  ca  ca  ha  ha  ha  ca  ca  ha  ca  ca  ha  ca  ca  ha  ca  ca  ha  
ca  ha  ha  ha  ca  ca  ca  ca  ca  ha  ca  ca  ca  ca  ca  ha  ha  ca  ha  ca  
ca  ha  ha  ha  ca  ca  ha  ca  ca  ha  ca  ca  ha  ca  ca  ha  ca  ha  ha  ha  
ca  ca  ca  ca  ca  ha  ca  ca  ca  ca  ca  ha  ha  ca  ha  ca  ca  ha  ha  ha  
ca  ca  ha  ca  ca  ha  ca  ca  ha  ca  ca  ha  ca  ha  ha  ha  ca  ca  ca  ca  
ca  ha  ca  ca  ca  ca  ca  ha  ha  ca  ha  ca  ca  ha  ha  ha  ca  ca  ha  ca  
ca  ha  ca  ca  ha  ca  ca  ha  ca  ha  ha  ha  ca  ca  ca  ca  ca  ha  ca  ca  
ca  ca  ca  ha  ha  ca  ha  ca  ca  ha  ha  ha  ca  ca  ha  ca  ca  ha  ca  ca  
ha  ca  ca  ha  ca  ha  ha  ha  ca  ca  ca  ca  ca  ha  ca  ca  ca  ca  ca  ha  
ha  ca  ha  ca  ca  ha  ha  ha  ca  ca  ha  ca  ca  ha  ca  ca  ha  ca  ca  ha  
ca  ha  ha  ha  ca  ca  ca  ca  ca  ha  ca  ca  ca  ca  ca  ha  ha  ca  ha  ca  
ca  ha  ha  ha  ca  ca  ha  ca  ca  ha  ca  ca  ha  ca  ca  ha  ca  ha  ha  ha  
ca  ca  ca  ca  ca  ha  ca  ca  ca  ca  ca  ha  ha  ca  ha  ca  ca  ha  ha  ha  
ca  ca  ha  ca  ca  ha  ca  ca  ha  ca  ca  ha  ca  ha  ha  ha  ca  ca  ca  ca  
ca  ha  ca  ca  ca  ca  ca  ha  ha  ca  ha  ca  ca  ha  ha  ha  ca  ca  ha  ca  
ca  ha  ca  ca  ha  ca  ca  ha  ca  ha  ha  ha  ca  ca  ca  ca  ca  ha  ca  ca  
ca  ca  ca  ha  ha  ca  ha  ca  ca  ha  ha  ha  ca  ca  ha  ca  ca  ha  ca  ca  
ha  ca  ca  ha  ca  ha  ha  ha  ca  ca  ca  ca  ca  ha  ca  ca  ca  ca  ca  ha  
ha  ca  ha  ca  ca  ha  ha  ha  ca  ca  ha  ca  ca  ha  ca  ca  ha  ca  ca  ha  
ca  ha  ha  ha  ca  ca  ca  ca  ca  ha  ca  ca  ca  ca  ca  ha  ha  ca  ha  ca  
ca  ha  ha  ha  ca  ca  ha  ca  ca  ha  ca  ca  ha  ca  ca  ha  ca  ha  ha  ha  
ca  ca  ca  ca  ca  ha  ca  ca  ca  ca  ca  ha  ha  ca  ha  ca  ca  ha  ha  ha  
ca  ca  ha  ca  ca  ha  ca  ca  ha  ca  ca  ha  ca  ha  ha  ha  ca  ca  ca  ca  
ca  ha  ca  ca  ca  ca  ca  ha  ha  ca  ha  ca  ca  ha  ha  ha  ca  ca  ha  ca  
ca  ha  ca  ca  ha  ca  ca  ha  ca  ha  ha  ha  ca  ca  ca  ca  ca  ha  ca  ca  
ca  ca  ca  ha  ha  ca  ha  ca  ca  ha  ha  ha  ca  ca  ha  ca  ca  ha  ca  ca  
ha  ca  ca  ha  ca  ha  ha  ha  ca  ca  ca  ca  ca  ha  ca  ca  ca  ca  ca  ha  
ha  ca  ha  ca  ca  ha  ha  ha  ca  ca  ha  ca  ca  ha  ca  ca  ha  ca  ca  ha  
ca  ha  ha  ha  ca  ca  ca  ca  ca  ha  ca  ca  ca  ca  ca  ha  ha  ca  ha  ca  
ca  ha  ha  ha  ca  ca  ha  ca  ca  ha  ca  ca  ha  ca  ca  ha  ca  ha  ha  ha  
ca  ca  ca  ca  ca  ha  ca  ca  ca  ca  ca  ha  ha  ca  ha  ca  ca  ha  ha  ha  
ca  ca  ha  ca  ca  ha  ca  ca  ha  ca  ca  ha  ca  ha  ha  ha  ca  ca  ca  ca  
ca  ha  ca  ca  ca  ca  ca  ha  ha  ca  ha  ca  ca  ha  ha  ha  ca  ca  ha  ca  
ca  ha  ca  ca  ha  ca  ca  ha  ca  ha  ha  ha  ca  ca  ca  ca  ca  ha  ca  ca  
ca  ca  ca  ha  ha  ca  ha  ca  ca  ha  ha  ha  ca  ca  ha  ca  ca  ha  ca  ca  
ha  ca  ca  ha  ca  ha  ha  ha  ca  ca  ca  ca  ca  ha  ca  ca  ca  ca  ca  ha  
ha  ca  ha  ca  ca  ha  ha  ha  ca  ca  ha  ca  ca  ha  ca  ca  ha  ca  ca  ha  
ca  ha  ha  ha  ca  ca  ca  ca  ca  ha  ca  ca  ca  ca  ca  ha  ha  ca  ha  ca  
ca  ha  ha  ha  ca  ca  ha  ca  ca  ha  ca  ca  ha  ca  ca  ha  ca  ha  ha  ha  
ca  ca  ca  ca  ca  ha  ca  ca  ca  ca  ca  ha  ha  ca  ha  ca  ca  ha  ha  ha  
ca  ca  ha  ca  ca  ha  ca  ca  ha  ca  ca  ha  ca  ha  ha  ha  ca  ca  ca  ca  
ca  ha  ca  ca  ca  ca  ca  ha  ha  ca  ha  ca  ca  ha  ha  ha  ca  ca  ha  ca  
ca  ha  ca  ca  ha  ca  ca  ha  ca  ha  ha  ha  ca  ca  ca  ca  ca  ha  ca  ca  
ca  ca  ca  ha  ha  ca  ha  ca  ca  ha  ha  ha  ca  ca  ha  ca  ca  ha  ca  ca  
ha  ca  ca  ha  ca  ha  ha  ha  ca  ca  ca  ca  ca  ha  ca  ca  ca  ca  ca  ha  
ha  ca  ha  ca  ca  ha  ha  ha  ca  ca  ha  ca  ca  ha  ca  ca  ha  ca  ca  ha  
ca  ha  ha  ha  ca  ca  ca  ca  ca  ha  ca  ca  ca  ca  ca  ha  ha  ca  ha  ca  
ca  ha  ha  ha  ca  ca  ha  ca  ca  ha  ca  ca  ha  ca  ca  ha  ca  ha  ha  ha  
ca  ca  ca  ca  ca  ha  ca  ca  ca  ca  ca  ha  ha  ca  ha  ca  ca  ha  ha  ha  
ca  ca  ha  ca  ca  ha  ca  ca  ha  ca  ca  ha  ca  ha  ha  ha  ca  ca  ca  ca  
ca  ha  ca  ca  ca  ca  ca  ha  ha  ca  ha  ca  ca  ha  ha  ha  ca  ca  ha  ca  
ca  ha  ca  ca  ha  ca  ca  ha  ca  ha  ha  ha  ca  ca  ca  ca  ca  ha  ca  ca  
ca  ca  ca  ha  ha  ca  ha  ca  ca  ha  ha  ha  ca  ca  ha  ca  ca  ha  ca  ca  
ha  ca  ca  ha  ca  ha  ha  ha  ca  ca  ca  ca  ca  ha  ca  ca  ca  ca  ca  ha  
ha  ca  ha  ca  ca  ha  ha  ha  ca  ca  ha  ca  ca  ha  ca  ca  ha  ca  ca  ha  
ca  ha  ha  ha  ca  ca  ca  ca  ca  ha  ca  ca  ca  ca  ca  ha  ha  ca  ha  ca  
ca  ha  ha  ha  ca  ca  ha  ca  ca  ha  ca  ca  ha  ca  ca  ha  ca  ha  ha  ha  
ca  ca  ca  ca  ca  ha  ca  ca  ca  ca  ca  ha  ha  ca  ha  ca  ca  ha  ha  ha  
ca  ca  ha  ca  ca  ha  ca  ca  ha  ca  ca  ha  ca  ha  ha  ha  ca  ca  ca  ca  
ca  ha  ca  ca  ca  ca  ca  ha  ha  ca  ha  ca  ca  ha  ha  ha  ca  ca  ha  ca  
ca  ha  ca  ca  ha  ca  ca  ha  ca  ha  ha  ha  ca  ca  ca  ca  ca  ha  ca  ca  
ca  ca  ca  ha  ha  ca  ha  ca  ca  ha  ha  ha  ca  ca  ha  ca  ca  ha  ca  ca  
ha  ca  ca  ha  ca  ha  ha  ha  ca  ca  ca  ca  ca  ha  ca  ca  ca  ca  ca  ha  
ha  ca  ha  ca  ca  ha  ha  ha  ca  ca  ha  ca  ca  ha  ca  ca  ha  ca  ca  ha  
ca  ha  ha  ha  ca  ca  ca  ca  ca  ha  ca  ca  ca  ca  ca  ha  ha  ca  ha  ca  
ca  ha  ha  ha  ca  ca  ha  ca  ca  ha  ca  ca  ha  ca  ca  ha  ca  ha  ha  ha  
ca  ca  ca  ca  ca  ha  ca  ca  ca  ca  ca  ha  ha  ca  ha  ca  ca  ha  ha  ha  
ca  ca  ha  ca  ca  ha  ca  ca  ha  ca  ca  ha  ca  ha  ha  ha  ca  ca  ca  ca  
ca  ha  ca  ca  ca  ca  ca  ha  ha  ca  ha  ca  ca  ha  ha  ha  ca  ca  ha  ca  
ca  ha  ca  ca  ha  ca  ca  ha  ca  ha  ha  ha  ca  ca  ca  ca  ca  ha  ca  ca  
ca  ca  ca  ha  ha  ca  ha  ca  ca  ha  ha  ha  ca  ca  ha  ca  ca  ha  ca  ca  
ha  ca  ca  ha  ca  ha  ha  ha  ca  ca  ca  ca  ca  ha  ca  ca  ca  ca  ca  ha  
ha  ca  ha  ca  ca  ha  ha  ha  ca  ca  ha  ca  ca  ha  ca  ca  ha  ca  ca  ha  
ca  ha  ha  ha  ca  ca  ca  ca  ca  ha  ca  ca  ca  ca  ca  ha  ha  ca  ha  ca  
ca  ha  ha  ha  ca  ca  ha  ca  ca  ha  ca  ca  ha  ca  ca  ha  ca  ha  ha  ha  
ca  ca  ca  ca  ca  ha  ca  ca  ca  ca  ca  ha  ha  ca  ha  ca  ca  ha  ha  ha  
ca  ca  ha  ca  ca  ha  ca  ca  ha  ca  ca  ha  ca  ha  ha  ha  ca  ca  ca  ca  
ca  ha  ca  ca  ca  ca  ca  ha  ha  ca  ha  ca  ca  ha  ha  ha  ca  ca  ha  ca  
ca  ha  ca  ca  ha  ca  ca  ha  ca  ha  ha  ha  ca  ca  ca  ca  ca  ha  ca  ca  
ca  ca  ca  ha  ha  ca  ha  ca  ca  ha  ha  ha  ca  ca  ha  ca  ca  ha  ca  ca  
ha  ca  ca  ha  ca  ha  ha  ha  ca  ca  ca  ca  ca  ha  ca  ca  ca  ca  ca  ha  
ha  ca  ha  ca  ca  ha  ha  ha  ca  ca  ha  ca  ca  ha  ca  ca  ha  ca  ca  ha  
ca  ha  ha  ha  ca  ca  ca  ca  ca  ha  ca  ca  ca  ca  ca  ha  ha  ca  ha  ca  
ca  ha  ha  ha  ca  ca  ha  ca  ca  ha  ca  ca  ha  ca  ca  ha  ca  ha  ha  ha  
ca  ca  ca  ca  ca  ha  ca  ca  ca  ca  ca  ha  ha  ca  ha  ca  ca  ha  ha  ha  
ca  ca  ha  ca  ca  ha  ca  ca  ha  ca  ca  ha  ca  ha  ha  ha  ca  ca  ca  ca  
ca  ha  ca  ca  ca  ca  ca  ha  ha  ca  ha  ca  ca  ha  ha  ha  ca  ca  ha  ca  
ca  ha  ca  ca  ha  ca  ca  ha  ca  ha  ha  ha  ca  ca  ca  ca  ca  ha  ca  ca  
ca  ca  ca  ha  ha  ca  ha  ca  ca  ha  ha  ha  ca  ca  ha  ca  ca  ha  ca  ca  
ha  ca  ca  ha  ca  ha  ha  ha  ca  ca  ca  ca  ca  ha  ca  ca  ca  ca  ca  ha  
ha  ca  ha  ca  ca  ha  ha  ha  ca  ca  ha  ca  ca  ha  ca  ca  ha  ca  ca  ha  
ca  ha  ha  ha  ca  ca  ca  ca  ca  ha  ca  ca  ca  ca  ca  ha  ha  ca  ha  ca  
ca  ha  ha  ha  ca  ca  ha  ca  ca  ha  ca  ca  ha  ca  ca  ha  ca  ha  ha  ha  
ca  ca  ca  ca  ca  ha  ca  ca  ca  ca  ca  ha  ha  ca  ha  ca  ca  ha  ha  ha  
ca  ca  ha  ca  ca  ha  ca  ca  ha  ca  ca  ha  ca  ha  ha  ha  ca  ca  ca  ca  
ca  ha  ca  ca  ca  ca  ca  ha  ha  ca  ha  ca  ca  ha  ha  ha  ca  ca  ha  ca  
ca  ha  ca  ca  ha  ca  ca  ha  ca  ha  ha  ha  ca  ca  ca  ca  ca  ha  ca  ca  
ca  ca  ca  ha  ha  ca  ha  ca  ca  ha  ha  ha  ca  ca  ha  ca  ca  ha  ca  ca  
ha  ca  ca  ha  ca  ha  ha  ha  ca  ca  ca  ca  ca  ha  ca  ca  ca  ca  ca  ha  
ha  ca  ha  ca  ca  ha  ha  ha  ca  ca  ha  ca  ca  ha  ca  ca  ha  ca  ca  ha  
ca  ha  ha  ha  ca  ca  ca  ca  ca  ha  ca  ca  ca  ca  ca  ha  ha  ca  ha  ca  
ca  ha  ha  ha  ca  ca  ha  ca  ca  ha  ca  ca  ha  ca  ca  ha  ca  ha  ha  ha  
ca  ca  ca  ca  ca  ha  ca  ca  ca  ca  ca  ha  ha  ca  ha  ca  ca  ha  ha  ha  
ca  ca  ha  ca  ca  ha  ca  ca  ha  ca  ca  ha  ca  ha  ha  ha  ca  ca  ca  ca  
ca  ha  ca  ca  ca  ca  ca  ha  ha  ca  ha  ca  ca  ha  ha  ha  ca  ca  ha  ca  
ca  ha  ca  ca  ha  ca  ca  ha  ca  ha  ha  ha  ca  ca  ca  ca  ca  ha  ca  ca  
ca  ca  ca  ha  ha  ca  ha  ca  ca  ha  ha  ha  ca  ca  ha  ca  ca  ha  ca  ca  
ha  ca  ca  ha  ca  ha  ha  ha  ca  ca  ca  ca  ca  ha  ca  ca  ca  ca  ca  ha  
ha  ca  ha  ca  ca  ha  ha  ha  ca  ca  ha  ca  ca  ha  ca  ca  ha  ca  ca  ha  
ca  ha  ha  ha  ca  ca  ca  ca  ca  ha  ca  ca  ca  ca  ca  ha  ha  ca  ha  ca  
ca  ha  ha  ha  ca  ca  ha  ca  ca  ha  ca  ca  ha  ca  ca  ha  ca  ha  ha  ha  
ca  ca  ca  ca  ca  ha  ca  ca  ca  ca  ca  ha  ha  ca  ha  ca  ca  ha  ha  ha  
ca  ca  ha  ca  ca  ha  ca  ca  ha  ca  ca  ha  ca  ha  ha  ha  ca  ca  ca  ca  
ca  ha  ca  ca  ca  ca  ca  ha  ha  ca  ha  ca  ca  ha  ha  ha  ca  ca  ha  ca  
ca  ha  ca  ca  ha  ca  ca  ha  ca  ha  ha  ha  ca  ca  ca  ca  ca  ha  ca  ca  
ca  ca  ca  ha  ha  ca  ha  ca  ca  ha  ha  ha  ca  ca  ha  ca  ca  ha  ca  ca  
ha  ca  ca  ha  ca  ha  ha  ha  ca  ca  ca  ca  ca  ha  ca  ca  ca  ca  ca  ha  
ha  ca  ha  ca  ca  ha  ha  ha  ca  ca  ha  ca  ca  ha  ca  ca  ha  ca  ca  ha  
ca  ha  ha  ha  ca  ca  ca  ca  ca  ha  ca  ca  ca  ca  ca  ha  ha  ca  ha  ca  
ca  ha  ha  ha  ca  ca  ha  ca  ca  ha  ca  ca  ha  ca  ca  ha  ca  ha  ha  ha  
ca  ca  ca  ca  ca  ha  ca  ca  ca  ca  ca  ha  ha  ca  ha  ca  ca  ha  ha  ha  
ca  ca  ha  ca  ca  ha  ca  ca  ha  ca  ca  ha  ca  ha  ha  ha  ca  ca  ca  ca  
ca  ha  ca  ca  ca  ca  ca  ha  ha  ca  ha  ca  ca  ha  ha  ha  ca  ca  ha  ca  
ca  ha  ca  ca  ha  ca  ca  ha  ca  ha  ha  ha  ca  ca  ca  ca  ca  ha  ca  ca  
ca  ca  ca  ha  ha  ca  ha  ca  ca  ha  ha  ha  ca  ca  ha  ca  ca  ha  ca  ca  
ha  ca  ca  ha  ca  ha  ha  ha  ca  ca  ca  ca  ca  ha  ca  ca  ca  ca  ca  ha  
ha  ca  ha  ca  ca  ha  ha  ha  ca  ca  ha  ca  ca  ha  ca  ca  ha  ca  ca  ha  
ca  ha  ha  ha  ca  ca  ca  ca  ca  ha  ca  ca  ca  ca  ca  ha  ha  ca  ha  ca  
ca  ha  ha  ha  ca  ca  ha  ca  ca  ha  ca  ca  ha  ca  ca  ha  ca  ha  ha  ha  
ca  ca  ca  ca  ca  ha  ca  ca  ca  ca  ca  ha  ha  ca  ha  ca  ca  ha  ha  ha  
ca  ca  ha  ca  ca  ha  ca  ca  ha  ca  ca  ha  ca  ha  ha  ha  ca  ca  ca  ca  
ca  ha  ca  ca  ca  ca  ca  ha  ha  ca  ha  ca  ca  ha  ha  ha  ca  ca  ha  ca  
ca  ha  ca  ca  ha  ca  ca  ha  ca  ha  ha  ha  ca  ca  ca  ca  ca  ha  ca  ca  
ca  ca  ca  ha  ha  ca  ha  ca  ca  ha  ha  ha  ca  ca  ha  ca  ca  ha  ca  ca  
ha  ca  ca  ha  ca  ha  ha  ha  ca  ca  ca  ca  ca  ha  ca  ca  ca  ca  ca  ha  
ha  ca  ha  ca  ca  ha  ha  ha  ca  ca  ha  ca  ca  ha  ca  ca  ha  ca  ca  ha  
ca  ha  ha  ha  ca  ca  ca  ca  ca  ha  ca  ca  ca  ca  ca  ha  ha  ca  ha  ca  
ca  ha  ha  ha  ca  ca  ha  ca  ca  ha  ca  ca  ha  ca  ca  ha  ca  ha  ha  ha  
ca  ca  ca  ca  ca  ha  ca  ca  ca  ca  ca  ha  ha  ca  ha  ca  ca  ha  ha  ha  
ca  ca  ha  ca  ca  ha  ca  ca  ha  ca  ca  ha  ca  ha  ha  ha  ca  ca  ca  ca  
ca  ha  ca  ca  ca  ca  ca  ha  ha  ca  ha  ca  ca  ha  ha  ha  ca  ca  ha  ca  
ca  ha  ca  ca  ha  ca  ca  ha  ca  ha  ha  ha  ca  ca  ca  ca  ca  ha  ca  ca  
ca  ca  ca  ha  ha  ca  ha  ca  ca  ha  ha  ha  ca  ca  ha  ca  ca  ha  ca  ca  
ha  ca  ca  ha  ca  ha  ha  ha  ca  ca  ca  ca  ca  ha  ca  ca  ca  ca  ca  ha  
ha  ca  ha  ca  ca  ha  ha  ha  ca  ca  ha  ca  ca  ha  ca  ca  ha  ca  ca  ha  
ca  ha  ha  ha  ca  ca  ca  ca  ca  ha  ca  ca  ca  ca  ca  ha  ha  ca  ha  ca  
ca  ha  ha  ha  ca  ca  ha  ca  ca  ha  ca  ca  ha  ca  ca  ha  ca  ha  ha  ha  
ca  ca  ca  ca  ca  ha  ca  ca  ca  ca  ca  ha  ha  ca  ha  ca  ca  ha  ha  ha  
ca  ca  ha  ca  ca  ha  ca  ca  ha  ca  ca  ha  ca  ha  ha  ha  ca  ca  ca  ca  
ca  ha  ca  ca  ca  ca  ca  ha  ha  ca  ha  ca  ca  ha  ha  ha  ca  ca  ha  ca  
ca  ha  ca  ca  ha  ca  ca  ha  ca  ha  ha  ha  ca  ca  ca  ca  ca  ha  ca  ca  
ca  ca  ca  ha  ha  ca  ha  ca  ca  ha  ha  ha  ca  ca  ha  ca  ca  ha  ca  ca  
ha  ca  ca  ha  ca  ha  ha  ha  ca  ca  ca  ca  ca  ha  ca  ca  ca  ca  ca  ha  
ha  ca  ha  ca  ca  ha  ha  ha  ca  ca  ha  ca  ca  ha  ca  ca  ha  ca  ca  ha  
ca  ha  ha  ha  ca  ca  ca  ca  ca  ha  ca  ca  ca  ca  ca  ha  ha  ca  ha  ca  
ca  ha  ha  ha  ca  ca  ha  ca  ca  ha  ca  ca  ha  ca  ca  ha  ca  ha  ha  ha  
ca  ca  ca  ca  ca  ha  ca  ca  ca  ca  ca  ha  ha  ca  ha  ca  ca  ha  ha  ha  
ca  ca  ha  ca  ca  ha  ca  ca  ha  ca  ca  ha  ca  ha  ha  ha  ca  ca  ca  ca  
ca  ha  ca  ca  ca  ca  ca  ha  ha  ca  ha  ca  ca  ha  ha  ha  ca  ca  ha  ca  
ca  ha  ca  ca  ha  ca  ca  ha  ca  ha  ha  ha  ca  ca  ca  ca  ca  ha  ca  ca  
ca  ca  ca  ha  ha  ca  ha  ca  ca  ha  ha  ha  ca  ca  ha  ca  ca  ha  ca  ca  
ha  ca  ca  ha  ca  ha  ha  ha  ca  ca  ca  ca  ca  ha  ca  ca  ca  ca  ca  ha  
ha  ca  ha  ca  ca  ha  ha  ha  ca  ca  ha  ca  ca  ha  ca  ca  ha  ca  ca  ha  
ca  ha  ha  ha  ca  ca  ca  ca  ca  ha  ca  ca  ca  ca  ca  ha  ha  ca  ha  ca  
ca  ha  ha  ha  ca  ca  ha  ca  ca  ha  ca  ca  ha  ca  ca  ha  ca  ha  ha  ha  
ca  ca  ca  ca  ca  ha  ca  ca  ca  ca  ca  ha  ha  ca  ha  ca  ca  ha  ha  ha  
ca  ca  ha  ca  ca  ha  ca  ca  ha  ca  ca  ha  ca  ha  ha  ha  ca  ca  ca  ca  
ca  ha  ca  ca  ca  ca  ca  ha  ha  ca  ha  ca  ca  ha  ha  ha  ca  ca  ha  ca  
ca  ha  ca  ca  ha  ca  ca  ha  ca  ha  ha  ha  ca  ca  ca  ca  ca  ha  ca  ca  
ca  ca  ca  ha  ha  ca  ha  ca  ca  ha  ha  ha  ca  ca  ha  ca  ca  ha  ca  ca  
ha  ca  ca  ha  ca  ha  ha  ha  ca  ca  ca  ca  ca  ha  ca  ca  ca  ca  ca  ha  
ha  ca  ha  ca  ca  ha  ha  ha  ca  ca  ha  ca  ca  ha  ca  ca  ha  ca  ca  ha  
ca  ha  ha  ha  ca  ca  ca  ca  ca  ha  ca  ca  ca  ca  ca  ha  ha  ca  ha  ca  
ca  ha  ha  ha  ca  ca  ha  ca  ca  ha  ca  ca  ha  ca  ca  ha  ca  ha  ha  ha  
ca  ca  ca  ca  ca  ha  ca  ca  ca  ca  ca  ha  ha  ca  ha  ca  ca  ha  ha  ha  
ca  ca  ha  ca  ca  ha  ca  ca  ha  ca  ca  ha  ca  ha  ha  ha  ca  ca  ca  ca  
ca  ha  ca  ca  ca  ca  ca  ha  ha  ca  ha  ca  ca  ha  ha  ha  ca  ca  ha  ca  
ca  ha  ca  ca  ha  ca  ca  ha  ca  ha  ha  ha  ca  ca  ca  ca  ca  ha  ca  ca  
ca  ca  ca  ha  ha  ca  ha  ca  ca  ha  ha  ha  ca  ca  ha  ca  ca  ha  ca  ca  
ha  ca  ca  ha  ca  ha  ha  ha  ca  ca  ca  ca  ca  ha  ca  ca  ca  ca  ca  ha  
ha  ca  ha  ca  ca  ha  ha  ha  ca  ca  ha  ca  ca  ha  ca  ca  ha  ca  ca  ha  
ca  ha  ha  ha  ca  ca  ca  ca  ca  ha  ca  ca  ca  ca  ca  ha  ha  ca  ha  ca  
ca  ha  ha  ha  ca  ca  ha  ca  ca  ha  ca  ca  ha  ca  ca  ha  ca  ha  ha  ha  
ca  ca  ca  ca  ca  ha  ca  ca  ca  ca  ca  ha  ha  ca  ha  ca  ca  ha  ha  ha  
ca  ca  ha  ca  ca  ha  ca  ca  ha  ca  ca  ha  ca  ha  ha  ha  ca  ca  ca  ca  
ca  ha  ca  ca  ca  ca  ca  ha  ha  ca  ha  ca  ca  ha  ha  ha  ca  ca  ha  ca  
ca  ha  ca  ca  ha  ca  ca  ha  ca  ha  ha  ha  ca  ca  ca  ca  ca  ha  ca  ca  
ca  ca  ca  ha  ha  ca  ha  ca  ca  ha  ha  ha  ca  ca  ha  ca  ca  ha  ca  ca  
ha  ca  ca  ha  ca  ha  ha  ha  ca  ca  ca  ca  ca  ha  ca  ca  ca  ca  ca  ha  
ha  ca  ha  ca  ca  ha  ha  ha  ca  ca  ha  ca  ca  ha  ca  ca  ha  ca  ca  ha  
ca  ha  ha  ha  ca  ca  ca  ca  ca  ha  ca  ca  ca  ca  ca  ha  ha  ca  ha  ca  
ca  ha  ha  ha  ca  ca  ha  ca  ca  ha  ca  ca  ha  ca  ca  ha  ca  ha  ha  ha  
ca  ca  ca  ca  ca  ha  ca  ca  ca  ca  ca  ha  ha  ca  ha  ca  ca  ha  ha  ha  
ca  ca  ha  ca  ca  ha  ca  ca  ha  ca  ca  ha  ca  ha  ha  ha  ca  ca  ca  ca  
ca  ha  ca  ca  ca  ca  ca  ha  ha  ca  ha  ca  ca  ha  ha  ha  ca  ca  ha  ca  
ca  ha  ca  ca  ha  ca  ca  ha  ca  ha  ha  ha  ca  ca  ca  ca  ca  ha  ca  ca  
ca  ca  ca  ha  ha  ca  ha  ca  ca  ha  ha  ha  ca  ca  ha  ca  ca  ha  ca  ca  
ha  ca  ca  ha  ca  ha  ha  ha  ca  ca  ca  ca  ca  ha  ca  ca  ca  ca  ca  ha  
ha  ca  ha  ca  ca  ha  ha  ha  ca  ca  ha  ca  ca  ha  ca  ca  ha  ca  ca  ha  
ca  ha  ha  ha  ca  ca  ca  ca  ca  ha  ca  ca  ca  ca  ca  ha  ha  ca  ha  ca  
ca  ha  ha  ha  ca  ca  ha  ca  ca  ha  ca  ca  ha  ca  ca  ha  ca  ha  ha  ha  
ca  ca  ca  ca  ca  ha  ca  ca  ca  ca  ca  ha  ha  ca  ha  ca  ca  ha  ha  ha  
ca  ca  ha  ca  ca  ha  ca  ca  ha  ca  ca  ha  ca  ha  ha  ha  ca  ca  ca  ca  
ca  ha  ca  ca  ca  ca  ca  ha  ha  ca  ha  ca  ca  ha  ha  ha  ca  ca  ha  ca  
ca  ha  ca  ca  ha  ca  ca  ha  ca  ha  ha  ha  ca  ca  ca  ca  ca  ha  ca  ca  
ca  ca  ca  ha  ha  ca  ha  ca  ca  ha  ha  ha  ca  ca  ha  ca  ca  ha  ca  ca  
ha  ca  ca  ha  ca  ha  ha  ha  ca  ca  ca  ca  ca  ha  ca  ca  ca  ca  ca  ha  
ha  ca  ha  ca  ca  ha  ha  ha  ca  ca  ha  ca  ca  ha  ca  ca  ha  ca  ca  ha  
ca  ha  ha  ha  ca  ca  ca  ca  ca  ha  ca  ca  ca  ca  ca  ha  ha  ca  ha  ca  
ca  ha  ha  ha  ca  ca  ha  ca  ca  ha  ca  ca  ha  ca  ca  ha  ca  ha  ha  ha  
ca  ca  ca  ca  ca  ha  ca  ca  ca  ca  ca  ha  ha  ca  ha  ca  ca  ha  ha  ha  
ca  ca  ha  ca  ca  ha  ca  ca  ha  ca  ca  ha  ca  ha  ha  ha  ca  ca  ca  ca  
ca  ha  ca  ca  ca  ca  ca  ha  ha  ca  ha  ca  ca  ha  ha  ha  ca  ca  ha  ca  
ca  ha  ca  ca  ha  ca  ca  ha  ca  ha  ha  ha  ca  ca  ca  ca  ca  ha  ca  ca  
ca  ca  ca  ha  ha  ca  ha  ca  ca  ha  ha  ha  ca  ca  ha  ca  ca  ha  ca  ca  
ha  ca  ca  ha  ca  ha  ha  ha  ca  ca  ca  ca  ca  ha  ca  ca  ca  ca  ca  ha  
ha  ca  ha  ca  ca  ha  ha  ha  ca  ca  ha  ca  ca  ha  ca  ca  ha  ca  ca  ha  
ca  ha  ha  ha  ca  ca  ca  ca  ca  ha  ca  ca  ca  ca  ca  ha  ha  ca  ha  ca  
ca  ha  ha  ha  ca  ca  ha  ca  ca  ha  ca  ca  ha  ca  ca  ha  ca  ha  ha  ha  
ca  ca  ca  ca  ca  ha  ca  ca  ca  ca  ca  ha  ha  ca  ha  ca  ca  ha  ha  ha  
ca  ca  ha  ca  ca  ha  ca  ca  ha  ca  ca  ha  ca  ha  ha  ha  ca  ca  ca  ca  
ca  ha  ca  ca  ca  ca  ca  ha  ha  ca  ha  ca  ca  ha  ha  ha  ca  ca  ha  ca  
ca  ha  ca  ca  ha  ca  ca  ha  ca  ha  ha  ha  ca  ca  ca  ca  ca  ha  ca  ca  
ca  ca  ca  ha  ha  ca  ha  ca  ca  ha  ha  ha  ca  ca  ha  ca  ca  ha  ca  ca  
ha  ca  ca  ha  ca  ha  ha  ha  ca  ca  ca  ca  ca  ha  ca  ca  ca  ca  ca  ha  
ha  ca  ha  ca  ca  ha  ha  ha  ca  ca  ha  ca  ca  ha  ca  ca  ha  ca  ca  ha  
ca  ha  ha  ha  ca  ca  ca  ca  ca  ha  ca  ca  ca  ca  ca  ha  ha  ca  ha  ca  
ca  ha  ha  ha  ca  ca  ha  ca  ca  ha  ca  ca  ha  ca  ca  ha  ca  ha  ha  ha  
ca  ca  ca  ca  ca  ha  ca  ca  ca  ca  ca  ha  ha  ca  ha  ca  ca  ha  ha  ha  
ca  ca  ha  ca  ca  ha  ca  ca  ha  ca  ca  ha  ca  ha  ha  ha  ca  ca  ca  ca  
ca  ha  ca  ca  ca  ca  ca  ha  ha  ca  ha  ca  ca  ha  ha  ha  ca  ca  ha  ca  
ca  ha  ca  ca  ha  ca  ca  ha  ca  ha  ha  ha  ca  ca  ca  ca  ca  ha  ca  ca  
ca  ca  ca  ha  ha  ca  ha  ca  ca  ha  ha  ha  ca  ca  ha  ca  ca  ha  ca  ca  
ha  ca  ca  ha  ca  ha  ha  ha  ca  ca  ca  ca  ca  ha  ca  ca  ca  ca  ca  ha  
ha  ca  ha  ca  ca  ha  ha  ha  ca  ca  ha  ca  ca  ha  ca  ca  ha  ca  ca  ha  
ca  ha  ha  ha  ca  ca  ca  ca  ca  ha  ca  ca  ca  ca  ca  ha  ha  ca  ha  ca  
ca  ha  ha  ha  ca  ca  ha  ca  ca  ha  ca  ca  ha  ca  ca  ha  ca  ha  ha  ha  
ca  ca  ca  ca  ca  ha  ca  ca  ca  ca  ca  ha  ha  ca  ha  ca  ca  ha  ha  ha  
ca  ca  ha  ca  ca  ha  ca  ca  ha  ca  ca  ha  ca  ha  ha  ha  ca  ca  ca  ca  
ca  ha  ca  ca  ca  ca  ca  ha  ha  ca  ha  ca  ca  ha  ha  ha  ca  ca  ha  ca  
ca  ha  ca  ca  ha  ca  ca  ha  ca  ha  ha  ha  ca  ca  ca  ca  ca  ha  ca  ca  
ca  ca  ca  ha  ha  ca  ha  ca  ca  ha  ha  ha  ca  ca  ha  ca  ca  ha  ca  ca  
ha  ca  ca  ha  ca  ha  ha  ha  ca  ca  ca  ca  ca  ha  ca  ca  ca  ca  ca  ha  
ha  ca  ha  ca  ca  ha  ha  ha  ca  ca  ha  ca  ca  ha  ca  ca  ha  ca  ca  ha  
ca  ha  ha  ha  ca  ca  ca  ca  ca  ha  ca  ca  ca  ca  ca  ha  ha  ca  ha  ca  
ca  ha  ha  ha  ca  ca  ha  ca  ca  ha  ca  ca  ha  ca  ca  ha  ca  ha  ha  ha  
ca  ca  ca  ca  ca  ha  ca  ca  ca  ca  ca  ha  ha  ca  ha  ca  ca  ha  ha  ha  
ca  ca  ha  ca  ca  ha  ca  ca  ha  ca  ca  ha  ca  ha  ha  ha  ca  ca  ca  ca  
ca  ha  ca  ca  ca  ca  ca  ha  ha  ca  ha  ca  ca  ha  ha  ha  ca  ca  ha  ca  
ca  ha  ca  ca  ha  ca  ca  ha  ca  ha  ha  ha  ca  ca  ca  ca  ca  ha  ca  ca  
ca  ca  ca  ha  ha  ca  ha  ca  ca  ha  ha  ha  ca  ca  ha  ca  ca  ha  ca  ca  
ha  ca  ca  ha  ca  ha  ha  ha  ca  ca  ca  ca  ca  ha  ca  ca  ca  ca  ca  ha  
ha  ca  ha  ca  ca  ha  ha  ha  ca  ca  ha  ca  ca  ha  ca  ca  ha  ca  ca  ha  
ca  ha  ha  ha  ca  ca  ca  ca  ca  ha  ca  ca  ca  ca  ca  ha  ha  ca  ha  ca  
ca  ha  ha  ha  ca  ca  ha  ca  ca  ha  ca  ca  ha  ca  ca  ha  ca  ha  ha  ha  
ca  ca  ca  ca  ca  ha  ca  ca  ca  ca  ca  ha  ha  ca  ha  ca  ca  ha  ha  ha  
ca  ca  ha  ca  ca  ha  ca  ca  ha  ca  ca  ha  ca  ha  ha  ha  ca  ca  ca  ca  
ca  ha  ca  ca  ca  ca  ca  ha  ha  ca  ha  ca  ca  ha  ha  ha  ca  ca  ha  ca  
ca  ha  ca  ca  ha  ca  ca  ha  ca  ha  ha  ha  ca  ca  ca  ca  ca  ha  ca  ca  
ca  ca  ca  ha  ha  ca  ha  ca  ca  ha  ha  ha  ca  ca  ha  ca  ca  ha  ca  ca  
ha  ca  ca  ha  ca  ha  ha  ha  ca  ca  ca  ca  ca  ha  ca  ca  ca  ca  ca  ha  
ha  ca  ha  ca  ca  ha  ha  ha  ca  ca  ha  ca  ca  ha  ca  ca  ha  ca  ca  ha  
ca  ha  ha  ha  ca  ca  ca  ca  ca  ha  ca  ca  ca  ca  ca  ha  ha  ca  ha  ca  
ca  ha  ha  ha  ca  ca  ha  ca  ca  ha  ca  ca  ha  ca  ca  ha  ca  ha  ha  ha  
ca  ca  ca  ca  ca  ha  ca  ca  ca  ca  ca  ha  ha  ca  ha  ca  ca  ha  ha  ha  
ca  ca  ha  ca  ca  ha  ca  ca  ha  ca  ca  ha  ca  ha  ha  ha  ca  ca  ca  ca  
ca  ha  ca  ca  ca  ca  ca  ha  ha  ca  ha  ca  ca  ha  ha  ha  ca  ca  ha  ca  
ca  ha  ca  ca  ha  ca  ca  ha  ca  ha  ha  ha  ca  ca  ca  ca  ca  ha  ca  ca  
ca  ca  ca  ha  ha  ca  ha  ca  ca  ha  ha  ha  ca  ca  ha  ca  ca  ha  ca  ca  
ha  ca  ca  ha  ca  ha  ha  ha  ca  ca  ca  ca  ca  ha  ca  ca  ca  ca  ca  ha  
ha  ca  ha  ca  ca  ha  ha  ha  ca  ca  ha  ca  ca  ha  ca  ca  ha  ca  ca  ha  
ca  ha  ha  ha  ca  ca  ca  ca  ca  ha  ca  ca  ca  ca  ca  ha  ha  ca  ha  ca  
ca  ha  ha  ha  ca  ca  ha  ca  ca  ha  ca  ca  ha  ca  ca  ha  ca  ha  ha  ha  
ca  ca  ca  ca  ca  ha  ca  ca  ca  ca  ca  ha  ha  ca  ha  ca  ca  ha  ha  ha  
ca  ca  ha  ca  ca  ha  ca  ca  ha  ca  ca  ha  ca  ha  ha  ha  ca  ca  ca  ca  
ca  ha  ca  ca  ca  ca  ca  ha  ha  ca  ha  ca  ca  ha  ha  ha  ca  ca  ha  ca  
ca  ha  ca  ca  ha  ca  ca  ha  ca  ha  ha  ha  ca  ca  ca  ca  ca  ha  ca  ca  
ca  ca  ca  ha  ha  ca  ha  ca  ca  ha  ha  ha  ca  ca  ha  ca  ca  ha  ca  ca  
ha  ca  ca  ha  ca  ha  ha  ha  ca  ca  ca  ca  ca  ha  ca  ca  ca  ca  ca  ha  
ha  ca  ha  ca  ca  ha  ha  ha  ca  ca  ha  ca  ca  ha  ca  ca  ha  ca  ca  ha  
ca  ha  ha  ha  ca  ca  ca  ca  ca  ha  ca  ca  ca  ca  ca  ha  ha  ca  ha  ca  
ca  ha  ha  ha  ca  ca  ha  ca  ca  ha  ca  ca  ha  ca  ca  ha  ca  ha  ha  ha  
ca  ca  ca  ca  ca  ha  ca  ca  ca  ca  ca  ha  ha  ca  ha  ca  ca  ha  ha  ha  
ca  ca  ha  ca  ca  ha  ca  ca  ha  ca  ca  ha  ca  ha  ha  ha  ca  ca  ca  ca  
ca  ha  ca  ca  ca  ca  ca  ha  ha  ca  ha  ca  ca  ha  ha  ha  ca  ca  ha  ca  
ca  ha  ca  ca  ha  ca  ca  ha  ca  ha  ha  ha  ca  ca  ca  ca  ca  ha  ca  ca  
ca  ca  ca  ha  ha  ca  ha  ca  ca  ha  ha  ha  ca  ca  ha  ca  ca  ha  ca  ca  
ha  ca  ca  ha  ca  ha  ha  ha  ca  ca  ca  ca  ca  ha  ca  ca  ca  ca  ca  ha  
ha  ca  ha  ca  ca  ha  ha  ha  ca  ca  ha  ca  ca  ha  ca  ca  ha  ca  ca  ha  
ca  ha  ha  ha  ca  ca  ca  ca  ca  ha  ca  ca  ca  ca  ca  ha  ha  ca  ha  ca  
ca  ha  ha  ha  ca  ca  ha  ca  ca  ha  ca  ca  ha  ca  ca  ha  ca  ha  ha  ha  
ca  ca  ca  ca  ca  ha  ca  ca  ca  ca  ca  ha  ha  ca  ha  ca  ca  ha  ha  ha  
ca  ca  ha  ca  ca  ha  ca  ca  ha  ca  ca  ha  ca  ha  ha  ha  ca  ca  ca  ca  
ca  ha  ca  ca  ca  ca  ca  ha  ha  ca  ha  ca  ca  ha  ha  ha  ca  ca  ha  ca  
ca  ha  ca  ca  ha  ca  ca  ha  ca  ha  ha  ha  ca  ca  ca  ca  ca  ha  ca  ca  
ca  ca  ca  ha  ha  ca  ha  ca  ca  ha  ha  ha  ca  ca  ha  ca  ca  ha  ca  ca  
ha  ca  ca  ha  ca  ha  ha  ha  ca  ca  ca  ca  ca  ha  ca  ca  ca  ca  ca  ha  
ha  ca  ha  ca  ca  ha  ha  ha  ca  ca  ha  ca  ca  ha  ca  ca  ha  ca  ca  ha  
ca  ha  ha  ha  ca  ca  ca  ca  ca  ha  ca  ca  ca  ca  ca  ha  ha  ca  ha  ca  
ca  ha  ha  ha  ca  ca  ha  ca  ca  ha  ca  ca  ha  ca  ca  ha  ca  ha  ha  ha  
ca  ca  ca  ca  ca  ha  ca  ca  ca  ca  ca  ha  ha  ca  ha  ca  ca  ha  ha  ha  
ca  ca  ha  ca  ca  ha  ca  ca  ha  ca  ca  ha  ca  ha  ha  ha  ca  ca  ca  ca  
ca  ha  ca  ca  ca  ca  ca  ha  ha  ca  ha  ca  ca  ha  ha  ha  ca  ca  ha  ca  
ca  ha  ca  ca  ha  ca  ca  ha  ca  ha  ha  ha  ca  ca  ca  ca  ca  ha  ca  ca  
ca  ca  ca  ha  ha  ca  ha  ca  ca  ha  ha  ha  ca  ca  ha  ca  ca  ha  ca  ca  
ha  ca  ca  ha  ca  ha  ha  ha  ca  ca  ca  ca  ca  ha  ca  ca  ca  ca  ca  ha  
ha  ca  ha  ca  ca  ha  ha  ha  ca  ca  ha  ca  ca  ha  ca  ca  ha  ca  ca  ha  
ca  ha  ha  ha  ca  ca  ca  ca  ca  ha  ca  ca  ca  ca  ca  ha  ha  ca  ha  ca  
ca  ha  ha  ha  ca  ca  ha  ca  ca  ha  ca  ca  ha  ca  ca  ha  ca  ha  ha  ha  
ca  ca  ca  ca  ca  ha  ca  ca  ca  ca  ca  ha  ha  ca  ha  ca  ca  ha  ha  ha  
ca  ca  ha  ca  ca  ha  ca  ca  ha  ca  ca  ha  ca  ha  ha  ha  ca  ca  ca  ca  
ca  ha  ca  ca  ca  ca  ca  ha  ha  ca  ha  ca  ca  ha  ha  ha  ca  ca  ha  ca  
ca  ha  ca  ca  ha  ca  ca  ha  ca  ha  ha  ha  ca  ca  ca  ca  ca  ha  ca  ca  
ca  ca  ca  ha  ha  ca  ha  ca  ca  ha  ha  ha  ca  ca  ha  ca  ca  ha  ca  ca  
ha  ca  ca  ha  ca  ha  ha  ha  ca  ca  ca  ca  ca  ha  ca  ca  ca  ca  ca  ha  
ha  ca  ha  ca  ca  ha  ha  ha  ca  ca  ha  ca  ca  ha  ca  ca  ha  ca  ca  ha  
ca  ha  ha  ha  ca  ca  ca  ca  ca  ha  ca  ca  ca  ca  ca  ha  ha  ca  ha  ca  
ca  ha  ha  ha  ca  ca  ha  ca  ca  ha  ca  ca  ha  ca  ca  ha  ca  ha  ha  ha  
ca  ca  ca  ca  ca  ha  ca  ca  ca  ca  ca  ha  ha  ca  ha  ca  ca  ha  ha  ha  
ca  ca  ha  ca  ca  ha  ca  ca  ha  ca  ca  ha  ca  ha  ha  ha  ca  ca  ca  ca  
ca  ha  ca  ca  ca  ca  ca  ha  ha  ca  ha  ca  ca  ha  ha  ha  ca  ca  ha  ca  
ca  ha  ca  ca  ha  ca  ca  ha  ca  ha  ha  ha  ca  ca  ca  ca  ca  ha  ca  ca  
ca  ca  ca  ha  ha  ca  ha  ca  ca  ha  ha  ha  ca  ca  ha  ca  ca  ha  ca  ca  
ha  ca  ca  ha  ca  ha  ha  ha  ca  ca  ca  ca  ca  ha  ca  ca  ca  ca  ca  ha  
ha  ca  ha  ca  ca  ha  ha  ha  ca  ca  ha  ca  ca  ha  ca  ca  ha  ca  ca  ha  
ca  ha  ha  ha  ca  ca  ca  ca  ca  ha  ca  ca  ca  ca  ca  ha  ha  ca  ha  ca  
ca  ha  ha  ha  ca  ca  ha  ca  ca  ha  ca  ca  ha  ca  ca  ha  ca  ha  ha  ha  
ca  ca  ca  ca  ca  ha  ca  ca  ca  ca  ca  ha  ha  ca  ha  ca  ca  ha  ha  ha  
ca  ca  ha  ca  ca  ha  ca  ca  ha  ca  ca  ha  ca  ha  ha  ha  ca  ca  ca  ca  
ca  ha  ca  ca  ca  ca  ca  ha  ha  ca  ha  ca  ca  ha  ha  ha  ca  ca  ha  ca  
ca  ha  ca  ca  ha  ca  ca  ha  ca  ha  ha  ha  ca  ca  ca  ca  ca  ha  ca  ca  
ca  ca  ca  ha  ha  ca  ha  ca  ca  ha  ha  ha  ca  ca  ha  ca  ca  ha  ca  ca  
ha  ca  ca  ha  ca  ha  ha  ha  ca  ca  ca  ca  ca  ha  ca  ca  ca  ca  ca  ha  
ha  ca  ha  ca  ca  ha  ha  ha  ca  ca  ha  ca  ca  ha  ca  ca  ha  ca  ca  ha  
ca  ha  ha  ha  ca  ca  ca  ca  ca  ha  ca  ca  ca  ca  ca  ha  ha  ca  ha  ca  
ca  ha  ha  ha  ca  ca  ha  ca  ca  ha  ca  ca  ha  ca  ca  ha  ca  ha  ha  ha  
ca  ca  ca  ca  ca  ha  ca  ca  ca  ca  ca  ha  ha  ca  ha  ca  ca  ha  ha  ha  
ca  ca  ha  ca  ca  ha  ca  ca  ha  ca  ca  ha  ca  ha  ha  ha  ca  ca  ca  ca  
ca  ha  ca  ca  ca  ca  ca  ha  ha  ca  ha  ca  ca  ha  ha  ha  ca  ca  ha  ca  
ca  ha  ca  ca  ha  ca  ca  ha  ca  ha  ha  ha  ca  ca  ca  ca  ca  ha  ca  ca  
ca  ca  ca  ha  ha  ca  ha  ca  ca  ha  ha  ha  ca  ca  ha  ca  ca  ha  ca  ca  
ha  ca  ca  ha  ca  ha  ha  ha  ca  ca  ca  ca  ca  ha  ca  ca  ca  ca  ca  ha  
ha  ca  ha  ca  ca  ha  ha  ha  ca  ca  ha  ca  ca  ha  ca  ca  ha  ca  ca  ha  
ca  ha  ha  ha  ca  ca  ca  ca  ca  ha  ca  ca  ca  ca  ca  ha  ha  ca  ha  ca  
ca  ha  ha  ha  ca  ca  ha  ca  ca  ha  ca  ca  ha  ca  ca  ha  ca  ha  ha  ha  
ca  ca  ca  ca  ca  ha  ca  ca  ca  ca  ca  ha  ha  ca  ha  ca  ca  ha  ha  ha  
ca  ca  ha  ca  ca  ha  ca  ca  ha  ca  ca  ha  ca  ha  ha  ha  ca  ca  ca  ca  
ca  ha  ca  ca  ca  ca  ca  ha  ha  ca  ha  ca  ca  ha  ha  ha  ca  ca  ha  ca  
ca  ha  ca  ca  ha  ca  ca  ha  ca  ha  ha  ha  ca  ca  ca  ca  ca  ha  ca  ca  
ca  ca  ca  ha  ha  ca  ha  ca  ca  ha  ha  ha  ca  ca  ha  ca  ca  ha  ca  ca  
ha  ca  ca  ha  ca  ha  ha  ha  ca  ca  ca  ca  ca  ha  ca  ca  ca  ca  ca  ha  
ha  ca  ha  ca  ca  ha  ha  ha  ca  ca  ha  ca  ca  ha  ca  ca  ha  ca  ca  ha  
ca  ha  ha  ha  ca  ca  ca  ca  ca  ha  ca  ca  ca  ca  ca  ha  ha  ca  ha  ca  
ca  ha  ha  ha  ca  ca  ha  ca  ca  ha  ca  ca  ha  ca  ca  ha  ca  ha  ha  ha  
ca  ca  ca  ca  ca  ha  ca  ca  ca  ca  ca  ha  ha  ca  ha  ca  ca  ha  ha  ha  
ca  ca  ha  ca  ca  ha  ca  ca  ha  ca  ca  ha  ca  ha  ha  ha  ca  ca  ca  ca  
ca  ha  ca  ca  ca  ca  ca  ha  ha  ca  ha  ca  ca  ha  ha  ha  ca  ca  ha  ca  
ca  ha  ca  ca  ha  ca  ca  ha  ca  ha  ha  ha  ca  ca  ca  ca  ca  ha  ca  ca  
ca  ca  ca  ha  ha  ca  ha  ca  ca  ha  ha  ha  ca  ca  ha  ca  ca  ha  ca  ca  
ha  ca  ca  ha  ca  ha  ha  ha  ca  ca  ca  ca  ca  ha  ca  ca  ca  ca  ca  ha  
ha  ca  ha  ca  ca  ha  ha  ha  ca  ca  ha  ca  ca  ha  ca  ca  ha  ca  ca  ha  
ca  ha  ha  ha  ca  ca  ca  ca  ca  ha  ca  ca  ca  ca  ca  ha  ha  ca  ha  ca  
ca  ha  ha  ha  ca  ca  ha  ca  ca  ha  ca  ca  ha  ca  ca  ha  ca  ha  ha  ha  
ca  ca  ca  ca  ca  ha  ca  ca  ca  ca  ca  ha  ha  ca  ha  ca  ca  ha  ha  ha  
ca  ca  ha  ca  ca  ha  ca  ca  ha  ca  ca  ha  ca  ha  ha  ha  ca  ca  ca  ca  
ca  ha  ca  ca  ca  ca  ca  ha  ha  ca  ha  ca  ca  ha  ha  ha  ca  ca  ha  ca  
ca  ha  ca  ca  ha  ca  ca  ha  ca  ha  ha  ha  ca  ca  ca  ca  ca  ha  ca  ca  
ca  ca  ca  ha  ha  ca  ha  ca  ca  ha  ha  ha  ca  ca  ha  ca  ca  ha  ca  ca  
ha  ca  ca  ha  ca  ha  ha  ha  ca  ca  ca  ca  ca  ha  ca  ca  ca  ca  ca  ha  
ha  ca  ha  ca  ca  ha  ha  ha  ca  ca  ha  ca  ca  ha  ca  ca  ha  ca  ca  ha  
ca  ha  ha  ha  ca  ca  ca  ca  ca  ha  ca  ca  ca  ca  ca  ha  ha  ca  ha  ca  
ca  ha  ha  ha  ca  ca  ha  ca  ca  ha  ca  ca  ha  ca  ca  ha  ca  ha  ha  ha  
%FLAG TREE_CHAIN_CLASSIFICATION
%FORMAT(20a4)
BLA BLA BLA BLA BLA BLA BLA BLA BLA BLA BLA BLA BLA BLA BLA BLA BLA BLA BLA BLA 
BLA BLA BLA BLA BLA BLA BLA BLA BLA BLA BLA BLA BLA BLA BLA BLA BLA BLA BLA BLA 
BLA BLA BLA BLA BLA BLA BLA BLA BLA BLA BLA BLA BLA BLA BLA BLA BLA BLA BLA BLA 
BLA BLA BLA BLA BLA BLA BLA BLA BLA BLA BLA BLA BLA BLA BLA BLA BLA BLA BLA BLA 
BLA BLA BLA BLA BLA BLA BLA BLA BLA BLA BLA BLA BLA BLA BLA BLA BLA BLA BLA BLA 
BLA BLA BLA BLA BLA BLA BLA BLA BLA BLA BLA BLA BLA BLA BLA BLA BLA BLA BLA BLA 
BLA BLA BLA BLA BLA BLA BLA BLA BLA BLA BLA BLA BLA BLA BLA BLA BLA BLA BLA BLA 
BLA BLA BLA BLA BLA BLA BLA BLA BLA BLA BLA BLA BLA BLA BLA BLA BLA BLA BLA BLA 
BLA BLA BLA BLA BLA BLA BLA BLA BLA BLA BLA BLA BLA BLA BLA BLA BLA BLA BLA BLA 
BLA BLA BLA BLA BLA BLA BLA BLA BLA BLA BLA BLA BLA BLA BLA BLA BLA BLA BLA BLA 
BLA BLA BLA BLA BLA BLA BLA BLA BLA BLA BLA BLA BLA BLA BLA BLA BLA BLA BLA BLA 
BLA BLA BLA BLA BLA BLA BLA BLA BLA BLA BLA BLA BLA BLA BLA BLA BLA BLA BLA BLA 
BLA BLA BLA BLA BLA BLA BLA BLA BLA BLA BLA BLA BLA BLA BLA BLA BLA BLA BLA BLA 
BLA BLA BLA BLA BLA BLA BLA BLA BLA BLA BLA BLA BLA BLA BLA BLA BLA BLA BLA BLA 
BLA BLA BLA BLA BLA BLA BLA BLA BLA BLA BLA BLA BLA BLA BLA BLA BLA BLA BLA BLA 
BLA BLA BLA BLA BLA BLA BLA BLA BLA BLA BLA BLA BLA BLA BLA BLA BLA BLA BLA BLA 
BLA BLA BLA BLA BLA BLA BLA BLA BLA BLA BLA BLA BLA BLA BLA BLA BLA BLA BLA BLA 
BLA BLA BLA BLA BLA BLA BLA BLA BLA BLA BLA BLA BLA BLA BLA BLA BLA BLA BLA BLA 
BLA BLA BLA BLA BLA BLA BLA BLA BLA BLA BLA BLA BLA BLA BLA BLA BLA BLA BLA BLA 
BLA BLA BLA BLA BLA BLA BLA BLA BLA BLA BLA BLA BLA BLA BLA BLA BLA BLA BLA BLA 
BLA BLA BLA BLA BLA BLA BLA BLA BLA BLA BLA BLA BLA BLA BLA BLA BLA BLA BLA BLA 
BLA BLA BLA BLA BLA BLA BLA BLA BLA BLA BLA BLA BLA BLA BLA BLA BLA BLA BLA BLA 
BLA BLA BLA BLA BLA BLA BLA BLA BLA BLA BLA BLA BLA BLA BLA BLA BLA BLA BLA BLA 
BLA BLA BLA BLA BLA BLA BLA BLA BLA BLA BLA BLA BLA BLA BLA BLA BLA BLA BLA BLA 
BLA BLA BLA BLA BLA BLA BLA BLA BLA BLA BLA BLA BLA BLA BLA BLA BLA BLA BLA BLA 
BLA BLA BLA BLA BLA BLA BLA BLA BLA BLA BLA BLA BLA BLA BLA BLA BLA BLA BLA BLA 
BLA BLA BLA BLA BLA BLA BLA BLA BLA BLA BLA BLA BLA BLA BLA BLA BLA BLA BLA BLA 
BLA BLA BLA BLA BLA BLA BLA BLA BLA BLA BLA BLA BLA BLA BLA BLA BLA BLA BLA BLA 
BLA BLA BLA BLA BLA BLA BLA BLA BLA BLA BLA BLA BLA BLA BLA BLA BLA BLA BLA BLA 
BLA BLA BLA BLA BLA BLA BLA BLA BLA BLA BLA BLA BLA BLA BLA BLA BLA BLA BLA BLA 
BLA BLA BLA BLA BLA BLA BLA BLA BLA BLA BLA BLA BLA BLA BLA BLA BLA BLA BLA BLA 
BLA BLA BLA BLA BLA BLA BLA BLA BLA BLA BLA BLA BLA BLA BLA BLA BLA BLA BLA BLA 
BLA BLA BLA BLA BLA BLA BLA BLA BLA BLA BLA BLA BLA BLA BLA BLA BLA BLA BLA BLA 
BLA BLA BLA BLA BLA BLA BLA BLA BLA BLA BLA BLA BLA BLA BLA BLA BLA BLA BLA BLA 
BLA BLA BLA BLA BLA BLA BLA BLA BLA BLA BLA BLA BLA BLA BLA BLA BLA BLA BLA BLA 
BLA BLA BLA BLA BLA BLA BLA BLA BLA BLA BLA BLA BLA BLA BLA BLA BLA BLA BLA BLA 
BLA BLA BLA BLA BLA BLA BLA BLA BLA BLA BLA BLA BLA BLA BLA BLA BLA BLA BLA BLA 
BLA BLA BLA BLA BLA BLA BLA BLA BLA BLA BLA BLA BLA BLA BLA BLA BLA BLA BLA BLA 
BLA BLA BLA BLA BLA BLA BLA BLA BLA BLA BLA BLA BLA BLA BLA BLA BLA BLA BLA BLA 
BLA BLA BLA BLA BLA BLA BLA BLA BLA BLA BLA BLA BLA BLA BLA BLA BLA BLA BLA BLA 
BLA BLA BLA BLA BLA BLA BLA BLA BLA BLA BLA BLA BLA BLA BLA BLA BLA BLA BLA BLA 
BLA BLA BLA BLA BLA BLA BLA BLA BLA BLA BLA BLA BLA BLA BLA BLA BLA BLA BLA BLA 
BLA BLA BLA BLA BLA BLA BLA BLA BLA BLA BLA BLA BLA BLA BLA BLA BLA BLA BLA BLA 
BLA BLA BLA BLA BLA BLA BLA BLA BLA BLA BLA BLA BLA BLA BLA BLA BLA BLA BLA BLA 
BLA BLA BLA BLA BLA BLA BLA BLA BLA BLA BLA BLA BLA BLA BLA BLA BLA BLA BLA BLA 
BLA BLA BLA BLA BLA BLA BLA BLA BLA BLA BLA BLA BLA BLA BLA BLA BLA BLA BLA BLA 
BLA BLA BLA BLA BLA BLA BLA BLA BLA BLA BLA BLA BLA BLA BLA BLA BLA BLA BLA BLA 
BLA BLA BLA BLA BLA BLA BLA BLA BLA BLA BLA BLA BLA BLA BLA BLA BLA BLA BLA BLA 
BLA BLA BLA BLA BLA BLA BLA BLA BLA BLA BLA BLA BLA BLA BLA BLA BLA BLA BLA BLA 
BLA BLA BLA BLA BLA BLA BLA BLA BLA BLA BLA BLA BLA BLA BLA BLA BLA BLA BLA BLA 
BLA BLA BLA BLA BLA BLA BLA BLA BLA BLA BLA BLA BLA BLA BLA BLA BLA BLA BLA BLA 
BLA BLA BLA BLA BLA BLA BLA BLA BLA BLA BLA BLA BLA BLA BLA BLA BLA BLA BLA BLA 
BLA BLA BLA BLA BLA BLA BLA BLA BLA BLA BLA BLA BLA BLA BLA BLA BLA BLA BLA BLA 
BLA BLA BLA BLA BLA BLA BLA BLA BLA BLA BLA BLA BLA BLA BLA BLA BLA BLA BLA BLA 
BLA BLA BLA BLA BLA BLA BLA BLA BLA BLA BLA BLA BLA BLA BLA BLA BLA BLA BLA BLA 
BLA BLA BLA BLA BLA BLA BLA BLA BLA BLA BLA BLA BLA BLA BLA BLA BLA BLA BLA BLA 
BLA BLA BLA BLA BLA BLA BLA BLA BLA BLA BLA BLA BLA BLA BLA BLA BLA BLA BLA BLA 
BLA BLA BLA BLA BLA BLA BLA BLA BLA BLA BLA BLA BLA BLA BLA BLA BLA BLA BLA BLA 
BLA BLA BLA BLA BLA BLA BLA BLA BLA BLA BLA BLA BLA BLA BLA BLA BLA BLA BLA BLA 
BLA BLA BLA BLA BLA BLA BLA BLA BLA BLA BLA BLA BLA BLA BLA BLA BLA BLA BLA BLA 
BLA BLA BLA BLA BLA BLA BLA BLA BLA BLA BLA BLA BLA BLA BLA BLA BLA BLA BLA BLA 
BLA BLA BLA BLA BLA BLA BLA BLA BLA BLA BLA BLA BLA BLA BLA BLA BLA BLA BLA BLA 
BLA BLA BLA BLA BLA BLA BLA BLA BLA BLA BLA BLA BLA BLA BLA BLA BLA BLA BLA BLA 
BLA BLA BLA BLA BLA BLA BLA BLA BLA BLA BLA BLA BLA BLA BLA BLA BLA BLA BLA BLA 
BLA BLA BLA BLA BLA BLA BLA BLA BLA BLA BLA BLA BLA BLA BLA BLA BLA BLA BLA BLA 
BLA BLA BLA BLA BLA BLA BLA BLA BLA BLA BLA BLA BLA BLA BLA BLA BLA BLA BLA BLA 
BLA BLA BLA BLA BLA BLA BLA BLA BLA BLA BLA BLA BLA BLA BLA BLA BLA BLA BLA BLA 
BLA BLA BLA BLA BLA BLA BLA BLA BLA BLA BLA BLA BLA BLA BLA BLA BLA BLA BLA BLA 
BLA BLA BLA BLA BLA BLA BLA BLA BLA BLA BLA BLA BLA BLA BLA BLA BLA BLA BLA BLA 
BLA BLA BLA BLA BLA BLA BLA BLA BLA BLA BLA BLA BLA BLA BLA BLA BLA BLA BLA BLA 
BLA BLA BLA BLA BLA BLA BLA BLA BLA BLA BLA BLA BLA BLA BLA BLA BLA BLA BLA BLA 
BLA BLA BLA BLA BLA BLA BLA BLA BLA BLA BLA BLA BLA BLA BLA BLA BLA BLA BLA BLA 
BLA BLA BLA BLA BLA BLA BLA BLA BLA BLA BLA BLA BLA BLA BLA BLA BLA BLA BLA BLA 
BLA BLA BLA BLA BLA BLA BLA BLA BLA BLA BLA BLA BLA BLA BLA BLA BLA BLA BLA BLA 
BLA BLA BLA BLA BLA BLA BLA BLA BLA BLA BLA BLA BLA BLA BLA BLA BLA BLA BLA BLA 
BLA BLA BLA BLA BLA BLA BLA BLA BLA BLA BLA BLA BLA BLA BLA BLA BLA BLA BLA BLA 
BLA BLA BLA BLA BLA BLA BLA BLA BLA BLA BLA BLA BLA BLA BLA BLA BLA BLA BLA BLA 
BLA BLA BLA BLA BLA BLA BLA BLA BLA BLA BLA BLA BLA BLA BLA BLA BLA BLA BLA BLA 
BLA BLA BLA BLA BLA BLA BLA BLA BLA BLA BLA BLA BLA BLA BLA BLA BLA BLA BLA BLA 
BLA BLA BLA BLA BLA BLA BLA BLA BLA BLA BLA BLA BLA BLA BLA BLA BLA BLA BLA BLA 
BLA BLA BLA BLA BLA BLA BLA BLA BLA BLA BLA BLA BLA BLA BLA BLA BLA BLA BLA BLA 
BLA BLA BLA BLA BLA BLA BLA BLA BLA BLA BLA BLA BLA BLA BLA BLA BLA BLA BLA BLA 
BLA BLA BLA BLA BLA BLA BLA BLA BLA BLA BLA BLA BLA BLA BLA BLA BLA BLA BLA BLA 
BLA BLA BLA BLA BLA BLA BLA BLA BLA BLA BLA BLA BLA BLA BLA BLA BLA BLA BLA BLA 
BLA BLA BLA BLA BLA BLA BLA BLA BLA BLA BLA BLA BLA BLA BLA BLA BLA BLA BLA BLA 
BLA BLA BLA BLA BLA BLA BLA BLA BLA BLA BLA BLA BLA BLA BLA BLA BLA BLA BLA BLA 
BLA BLA BLA BLA BLA BLA BLA BLA BLA BLA BLA BLA BLA BLA BLA BLA BLA BLA BLA BLA 
BLA BLA BLA BLA BLA BLA BLA BLA BLA BLA BLA BLA BLA BLA BLA BLA BLA BLA BLA BLA 
BLA BLA BLA BLA BLA BLA BLA BLA BLA BLA BLA BLA BLA BLA BLA BLA BLA BLA BLA BLA 
BLA BLA BLA BLA BLA BLA BLA BLA BLA BLA BLA BLA BLA BLA BLA BLA BLA BLA BLA BLA 
BLA BLA BLA BLA BLA BLA BLA BLA BLA BLA BLA BLA BLA BLA BLA BLA BLA BLA BLA BLA 
BLA BLA BLA BLA BLA BLA BLA BLA BLA BLA BLA BLA BLA BLA BLA BLA BLA BLA BLA BLA 
BLA BLA BLA BLA BLA BLA BLA BLA BLA BLA BLA BLA BLA BLA BLA BLA BLA BLA BLA BLA 
BLA BLA BLA BLA BLA BLA BLA BLA BLA BLA BLA BLA BLA BLA BLA BLA BLA BLA BLA BLA 
BLA BLA BLA BLA BLA BLA BLA BLA BLA BLA BLA BLA BLA BLA BLA BLA BLA BLA BLA BLA 
BLA BLA BLA BLA BLA BLA BLA BLA BLA BLA BLA BLA BLA BLA BLA BLA BLA BLA BLA BLA 
BLA BLA BLA BLA BLA BLA BLA BLA BLA BLA BLA BLA BLA BLA BLA BLA BLA BLA BLA BLA 
BLA BLA BLA BLA BLA BLA BLA BLA BLA BLA BLA BLA BLA BLA BLA BLA BLA BLA BLA BLA 
BLA BLA BLA BLA BLA BLA BLA BLA BLA BLA BLA BLA BLA BLA BLA BLA BLA BLA BLA BLA 
BLA BLA BLA BLA BLA BLA BLA BLA BLA BLA BLA BLA BLA BLA BLA BLA BLA BLA BLA BLA 
BLA BLA BLA BLA BLA BLA BLA BLA BLA BLA BLA BLA BLA BLA BLA BLA BLA BLA BLA BLA 
BLA BLA BLA BLA BLA BLA BLA BLA BLA BLA BLA BLA BLA BLA BLA BLA BLA BLA BLA BLA 
BLA BLA BLA BLA BLA BLA BLA BLA BLA BLA BLA BLA BLA BLA BLA BLA BLA BLA BLA BLA 
BLA BLA BLA BLA BLA BLA BLA BLA BLA BLA BLA BLA BLA BLA BLA BLA BLA BLA BLA BLA 
BLA BLA BLA BLA BLA BLA BLA BLA BLA BLA BLA BLA BLA BLA BLA BLA BLA BLA BLA BLA 
BLA BLA BLA BLA BLA BLA BLA BLA BLA BLA BLA BLA BLA BLA BLA BLA BLA BLA BLA BLA 
BLA BLA BLA BLA BLA BLA BLA BLA BLA BLA BLA BLA BLA BLA BLA BLA BLA BLA BLA BLA 
BLA BLA BLA BLA BLA BLA BLA BLA BLA BLA BLA BLA BLA BLA BLA BLA BLA BLA BLA BLA 
BLA BLA BLA BLA BLA BLA BLA BLA BLA BLA BLA BLA BLA BLA BLA BLA BLA BLA BLA BLA 
BLA BLA BLA BLA BLA BLA BLA BLA BLA BLA BLA BLA BLA BLA BLA BLA BLA BLA BLA BLA 
BLA BLA BLA BLA BLA BLA BLA BLA BLA BLA BLA BLA BLA BLA BLA BLA BLA BLA BLA BLA 
BLA BLA BLA BLA BLA BLA BLA BLA BLA BLA BLA BLA BLA BLA BLA BLA BLA BLA BLA BLA 
BLA BLA BLA BLA BLA BLA BLA BLA BLA BLA BLA BLA BLA BLA BLA BLA BLA BLA BLA BLA 
BLA BLA BLA BLA BLA BLA BLA BLA BLA BLA BLA BLA BLA BLA BLA BLA BLA BLA BLA BLA 
BLA BLA BLA BLA BLA BLA BLA BLA BLA BLA BLA BLA BLA BLA BLA BLA BLA BLA BLA BLA 
BLA BLA BLA BLA BLA BLA BLA BLA BLA BLA BLA BLA BLA BLA BLA BLA BLA BLA BLA BLA 
BLA BLA BLA BLA BLA BLA BLA BLA BLA BLA BLA BLA BLA BLA BLA BLA BLA BLA BLA BLA 
BLA BLA BLA BLA BLA BLA BLA BLA BLA BLA BLA BLA BLA BLA BLA BLA BLA BLA BLA BLA 
BLA BLA BLA BLA BLA BLA BLA BLA BLA BLA BLA BLA BLA BLA BLA BLA BLA BLA BLA BLA 
BLA BLA BLA BLA BLA BLA BLA BLA BLA BLA BLA BLA BLA BLA BLA BLA BLA BLA BLA BLA 
BLA BLA BLA BLA BLA BLA BLA BLA BLA BLA BLA BLA BLA BLA BLA BLA BLA BLA BLA BLA 
BLA BLA BLA BLA BLA BLA BLA BLA BLA BLA BLA BLA BLA BLA BLA BLA BLA BLA BLA BLA 
BLA BLA BLA BLA BLA BLA BLA BLA BLA BLA BLA BLA BLA BLA BLA BLA BLA BLA BLA BLA 
BLA BLA BLA BLA BLA BLA BLA BLA BLA BLA BLA BLA BLA BLA BLA BLA BLA BLA BLA BLA 
BLA BLA BLA BLA BLA BLA BLA BLA BLA BLA BLA BLA BLA BLA BLA BLA BLA BLA BLA BLA 
BLA BLA BLA BLA BLA BLA BLA BLA BLA BLA BLA BLA BLA BLA BLA BLA BLA BLA BLA BLA 
BLA BLA BLA BLA BLA BLA BLA BLA BLA BLA BLA BLA BLA BLA BLA BLA BLA BLA BLA BLA 
BLA BLA BLA BLA BLA BLA BLA BLA BLA BLA BLA BLA BLA BLA BLA BLA BLA BLA BLA BLA 
BLA BLA BLA BLA BLA BLA BLA BLA BLA BLA BLA BLA BLA BLA BLA BLA BLA BLA BLA BLA 
BLA BLA BLA BLA BLA BLA BLA BLA BLA BLA BLA BLA BLA BLA BLA BLA BLA BLA BLA BLA 
BLA BLA BLA BLA BLA BLA BLA BLA BLA BLA BLA BLA BLA BLA BLA BLA BLA BLA BLA BLA 
BLA BLA BLA BLA BLA BLA BLA BLA BLA BLA BLA BLA BLA BLA BLA BLA BLA BLA BLA BLA 
BLA BLA BLA BLA BLA BLA BLA BLA BLA BLA BLA BLA BLA BLA BLA BLA BLA BLA BLA BLA 
BLA BLA BLA BLA BLA BLA BLA BLA BLA BLA BLA BLA BLA BLA BLA BLA BLA BLA BLA BLA 
BLA BLA BLA BLA BLA BLA BLA BLA BLA BLA BLA BLA BLA BLA BLA BLA BLA BLA BLA BLA 
BLA BLA BLA BLA BLA BLA BLA BLA BLA BLA BLA BLA BLA BLA BLA BLA BLA BLA BLA BLA 
BLA BLA BLA BLA BLA BLA BLA BLA BLA BLA BLA BLA BLA BLA BLA BLA BLA BLA BLA BLA 
BLA BLA BLA BLA BLA BLA BLA BLA BLA BLA BLA BLA BLA BLA BLA BLA BLA BLA BLA BLA 
BLA BLA BLA BLA BLA BLA BLA BLA BLA BLA BLA BLA BLA BLA BLA BLA BLA BLA BLA BLA 
BLA BLA BLA BLA BLA BLA BLA BLA BLA BLA BLA BLA BLA BLA BLA BLA BLA BLA BLA BLA 
BLA BLA BLA BLA BLA BLA BLA BLA BLA BLA BLA BLA BLA BLA BLA BLA BLA BLA BLA BLA 
BLA BLA BLA BLA BLA BLA BLA BLA BLA BLA BLA BLA BLA BLA BLA BLA BLA BLA BLA BLA 
BLA BLA BLA BLA BLA BLA BLA BLA BLA BLA BLA BLA BLA BLA BLA BLA BLA BLA BLA BLA 
BLA BLA BLA BLA BLA BLA BLA BLA BLA BLA BLA BLA BLA BLA BLA BLA BLA BLA BLA BLA 
BLA BLA BLA BLA BLA BLA BLA BLA BLA BLA BLA BLA BLA BLA BLA BLA BLA BLA BLA BLA 
BLA BLA BLA BLA BLA BLA BLA BLA BLA BLA BLA BLA BLA BLA BLA BLA BLA BLA BLA BLA 
BLA BLA BLA BLA BLA BLA BLA BLA BLA BLA BLA BLA BLA BLA BLA BLA BLA BLA BLA BLA 
BLA BLA BLA BLA BLA BLA BLA BLA BLA BLA BLA BLA BLA BLA BLA BLA BLA BLA BLA BLA 
BLA BLA BLA BLA BLA BLA BLA BLA BLA BLA BLA BLA BLA BLA BLA BLA BLA BLA BLA BLA 
BLA BLA BLA BLA BLA BLA BLA BLA BLA BLA BLA BLA BLA BLA BLA BLA BLA BLA BLA BLA 
BLA BLA BLA BLA BLA BLA BLA BLA BLA BLA BLA BLA BLA BLA BLA BLA BLA BLA BLA BLA 
BLA BLA BLA BLA BLA BLA BLA BLA BLA BLA BLA BLA BLA BLA BLA BLA BLA BLA BLA BLA 
BLA BLA BLA BLA BLA BLA BLA BLA BLA BLA BLA BLA BLA BLA BLA BLA BLA BLA BLA BLA 
BLA BLA BLA BLA BLA BLA BLA BLA BLA BLA BLA BLA BLA BLA BLA BLA BLA BLA BLA BLA 
BLA BLA BLA BLA BLA BLA BLA BLA BLA BLA BLA BLA BLA BLA BLA BLA BLA BLA BLA BLA 
BLA BLA BLA BLA BLA BLA BLA BLA BLA BLA BLA BLA BLA BLA BLA BLA BLA BLA BLA BLA 
BLA BLA BLA BLA BLA BLA BLA BLA BLA BLA BLA BLA BLA BLA BLA BLA BLA BLA BLA BLA 
BLA BLA BLA BLA BLA BLA BLA BLA BLA BLA BLA BLA BLA BLA BLA BLA BLA BLA BLA BLA 
BLA BLA BLA BLA BLA BLA BLA BLA BLA BLA BLA BLA BLA BLA BLA BLA BLA BLA BLA BLA 
BLA BLA BLA BLA BLA BLA BLA BLA BLA BLA BLA BLA BLA BLA BLA BLA BLA BLA BLA BLA 
BLA BLA BLA BLA BLA BLA BLA BLA BLA BLA BLA BLA BLA BLA BLA BLA BLA BLA BLA BLA 
BLA BLA BLA BLA BLA BLA BLA BLA BLA BLA BLA BLA BLA BLA BLA BLA BLA BLA BLA BLA 
BLA BLA BLA BLA BLA BLA BLA BLA BLA BLA BLA BLA BLA BLA BLA BLA BLA BLA BLA BLA 
BLA BLA BLA BLA BLA BLA BLA BLA BLA BLA BLA BLA BLA BLA BLA BLA BLA BLA BLA BLA 
BLA BLA BLA BLA BLA BLA BLA BLA BLA BLA BLA BLA BLA BLA BLA BLA BLA BLA BLA BLA 
BLA BLA BLA BLA BLA BLA BLA BLA BLA BLA BLA BLA BLA BLA BLA BLA BLA BLA BLA BLA 
BLA BLA BLA BLA BLA BLA BLA BLA BLA BLA BLA BLA BLA BLA BLA BLA BLA BLA BLA BLA 
BLA BLA BLA BLA BLA BLA BLA BLA BLA BLA BLA BLA BLA BLA BLA BLA BLA BLA BLA BLA 
BLA BLA BLA BLA BLA BLA BLA BLA BLA BLA BLA BLA BLA BLA BLA BLA BLA BLA BLA BLA 
BLA BLA BLA BLA BLA BLA BLA BLA BLA BLA BLA BLA BLA BLA BLA BLA BLA BLA BLA BLA 
BLA BLA BLA BLA BLA BLA BLA BLA BLA BLA BLA BLA BLA BLA BLA BLA BLA BLA BLA BLA 
BLA BLA BLA BLA BLA BLA BLA BLA BLA BLA BLA BLA BLA BLA BLA BLA BLA BLA BLA BLA 
BLA BLA BLA BLA BLA BLA BLA BLA BLA BLA BLA BLA BLA BLA BLA BLA BLA BLA BLA BLA 
BLA BLA BLA BLA BLA BLA BLA BLA BLA BLA BLA BLA BLA BLA BLA BLA BLA BLA BLA BLA 
BLA BLA BLA BLA BLA BLA BLA BLA BLA BLA BLA BLA BLA BLA BLA BLA BLA BLA BLA BLA 
BLA BLA BLA BLA BLA BLA BLA BLA BLA BLA BLA BLA BLA BLA BLA BLA BLA BLA BLA BLA 
BLA BLA BLA BLA BLA BLA BLA BLA BLA BLA BLA BLA BLA BLA BLA BLA BLA BLA BLA BLA 
BLA BLA BLA BLA BLA BLA BLA BLA BLA BLA BLA BLA BLA BLA BLA BLA BLA BLA BLA BLA 
BLA BLA BLA BLA BLA BLA BLA BLA BLA BLA BLA BLA BLA BLA BLA BLA BLA BLA BLA BLA 
BLA BLA BLA BLA BLA BLA BLA BLA BLA BLA BLA BLA BLA BLA BLA BLA BLA BLA BLA BLA 
BLA BLA BLA BLA BLA BLA BLA BLA BLA BLA BLA BLA BLA BLA BLA BLA BLA BLA BLA BLA 
BLA BLA BLA BLA BLA BLA BLA BLA BLA BLA BLA BLA BLA BLA BLA BLA BLA BLA BLA BLA 
BLA BLA BLA BLA BLA BLA BLA BLA BLA BLA BLA BLA BLA BLA BLA BLA BLA BLA BLA BLA 
BLA BLA BLA BLA BLA BLA BLA BLA BLA BLA BLA BLA BLA BLA BLA BLA BLA BLA BLA BLA 
BLA BLA BLA BLA BLA BLA BLA BLA BLA BLA BLA BLA BLA BLA BLA BLA BLA BLA BLA BLA 
BLA BLA BLA BLA BLA BLA BLA BLA BLA BLA BLA BLA BLA BLA BLA BLA BLA BLA BLA BLA 
BLA BLA BLA BLA BLA BLA BLA BLA BLA BLA BLA BLA BLA BLA BLA BLA BLA BLA BLA BLA 
BLA BLA BLA BLA BLA BLA BLA BLA BLA BLA BLA BLA BLA BLA BLA BLA BLA BLA BLA BLA 
BLA BLA BLA BLA BLA BLA BLA BLA BLA BLA BLA BLA BLA BLA BLA BLA BLA BLA BLA BLA 
BLA BLA BLA BLA BLA BLA BLA BLA BLA BLA BLA BLA BLA BLA BLA BLA BLA BLA BLA BLA 
BLA BLA BLA BLA BLA BLA BLA BLA BLA BLA BLA BLA BLA BLA BLA BLA BLA BLA BLA BLA 
BLA BLA BLA BLA BLA BLA BLA BLA BLA BLA BLA BLA BLA BLA BLA BLA BLA BLA BLA BLA 
BLA BLA BLA BLA BLA BLA BLA BLA BLA BLA BLA BLA BLA BLA BLA BLA BLA BLA BLA BLA 
BLA BLA BLA BLA BLA BLA BLA BLA BLA BLA BLA BLA BLA BLA BLA BLA BLA BLA BLA BLA 
BLA BLA BLA BLA BLA BLA BLA BLA BLA BLA BLA BLA BLA BLA BLA BLA BLA BLA BLA BLA 
BLA BLA BLA BLA BLA BLA BLA BLA BLA BLA BLA BLA BLA BLA BLA BLA BLA BLA BLA BLA 
BLA BLA BLA BLA BLA BLA BLA BLA BLA BLA BLA BLA BLA BLA BLA BLA BLA BLA BLA BLA 
BLA BLA BLA BLA BLA BLA BLA BLA BLA BLA BLA BLA BLA BLA BLA BLA BLA BLA BLA BLA 
BLA BLA BLA BLA BLA BLA BLA BLA BLA BLA BLA BLA BLA BLA BLA BLA BLA BLA BLA BLA 
BLA BLA BLA BLA BLA BLA BLA BLA BLA BLA BLA BLA BLA BLA BLA BLA BLA BLA BLA BLA 
BLA BLA BLA BLA BLA BLA BLA BLA BLA BLA BLA BLA BLA BLA BLA BLA BLA BLA BLA BLA 
BLA BLA BLA BLA BLA BLA BLA BLA BLA BLA BLA BLA BLA BLA BLA BLA BLA BLA BLA BLA 
BLA BLA BLA BLA BLA BLA BLA BLA BLA BLA BLA BLA BLA BLA BLA BLA BLA BLA BLA BLA 
BLA BLA BLA BLA BLA BLA BLA BLA BLA BLA BLA BLA BLA BLA BLA BLA BLA BLA BLA BLA 
BLA BLA BLA BLA BLA BLA BLA BLA BLA BLA BLA BLA BLA BLA BLA BLA BLA BLA BLA BLA 
BLA BLA BLA BLA BLA BLA BLA BLA BLA BLA BLA BLA BLA BLA BLA BLA BLA BLA BLA BLA 
BLA BLA BLA BLA BLA BLA BLA BLA BLA BLA BLA BLA BLA BLA BLA BLA BLA BLA BLA BLA 
BLA BLA BLA BLA BLA BLA BLA BLA BLA BLA BLA BLA BLA BLA BLA BLA BLA BLA BLA BLA 
BLA BLA BLA BLA BLA BLA BLA BLA BLA BLA BLA BLA BLA BLA BLA BLA BLA BLA BLA BLA 
BLA BLA BLA BLA BLA BLA BLA BLA BLA BLA BLA BLA BLA BLA BLA BLA BLA BLA BLA BLA 
BLA BLA BLA BLA BLA BLA BLA BLA BLA BLA BLA BLA BLA BLA BLA BLA BLA BLA BLA BLA 
BLA BLA BLA BLA BLA BLA BLA BLA BLA BLA BLA BLA BLA BLA BLA BLA BLA BLA BLA BLA 
BLA BLA BLA BLA BLA BLA BLA BLA BLA BLA BLA BLA BLA BLA BLA BLA BLA BLA BLA BLA 
BLA BLA BLA BLA BLA BLA BLA BLA BLA BLA BLA BLA BLA BLA BLA BLA BLA BLA BLA BLA 
BLA BLA BLA BLA BLA BLA BLA BLA BLA BLA BLA BLA BLA BLA BLA BLA BLA BLA BLA BLA 
BLA BLA BLA BLA BLA BLA BLA BLA BLA BLA BLA BLA BLA BLA BLA BLA BLA BLA BLA BLA 
BLA BLA BLA BLA BLA BLA BLA BLA BLA BLA BLA BLA BLA BLA BLA BLA BLA BLA BLA BLA 
BLA BLA BLA BLA BLA BLA BLA BLA BLA BLA BLA BLA BLA BLA BLA BLA BLA BLA BLA BLA 
BLA BLA BLA BLA BLA BLA BLA BLA BLA BLA BLA BLA BLA BLA BLA BLA BLA BLA BLA BLA 
BLA BLA BLA BLA BLA BLA BLA BLA BLA BLA BLA BLA BLA BLA BLA BLA BLA BLA BLA BLA 
BLA BLA BLA BLA BLA BLA BLA BLA BLA BLA BLA BLA BLA BLA BLA BLA BLA BLA BLA BLA 
BLA BLA BLA BLA BLA BLA BLA BLA BLA BLA BLA BLA BLA BLA BLA BLA BLA BLA BLA BLA 
BLA BLA BLA BLA BLA BLA BLA BLA BLA BLA BLA BLA BLA BLA BLA BLA BLA BLA BLA BLA 
BLA BLA BLA BLA BLA BLA BLA BLA BLA BLA BLA BLA BLA BLA BLA BLA BLA BLA BLA BLA 
BLA BLA BLA BLA BLA BLA BLA BLA BLA BLA BLA BLA BLA BLA BLA BLA BLA BLA BLA BLA 
BLA BLA BLA BLA BLA BLA BLA BLA BLA BLA BLA BLA BLA BLA BLA BLA BLA BLA BLA BLA 
BLA BLA BLA BLA BLA BLA BLA BLA BLA BLA BLA BLA BLA BLA BLA BLA BLA BLA BLA BLA 
BLA BLA BLA BLA BLA BLA BLA BLA BLA BLA BLA BLA BLA BLA BLA BLA BLA BLA BLA BLA 
BLA BLA BLA BLA BLA BLA BLA BLA BLA BLA BLA BLA BLA BLA BLA BLA BLA BLA BLA BLA 
BLA BLA BLA BLA BLA BLA BLA BLA BLA BLA BLA BLA BLA BLA BLA BLA BLA BLA BLA BLA 
BLA BLA BLA BLA BLA BLA BLA BLA BLA BLA BLA BLA BLA BLA BLA BLA BLA BLA BLA BLA 
BLA BLA BLA BLA BLA BLA BLA BLA BLA BLA BLA BLA BLA BLA BLA BLA BLA BLA BLA BLA 
BLA BLA BLA BLA BLA BLA BLA BLA BLA BLA BLA BLA BLA BLA BLA BLA BLA BLA BLA BLA 
BLA BLA BLA BLA BLA BLA BLA BLA BLA BLA BLA BLA BLA BLA BLA BLA BLA BLA BLA BLA 
BLA BLA BLA BLA BLA BLA BLA BLA BLA BLA BLA BLA BLA BLA BLA BLA BLA BLA BLA BLA 
BLA BLA BLA BLA BLA BLA BLA BLA BLA BLA BLA BLA BLA BLA BLA BLA BLA BLA BLA BLA 
BLA BLA BLA BLA BLA BLA BLA BLA BLA BLA BLA BLA BLA BLA BLA BLA BLA BLA BLA BLA 
BLA BLA BLA BLA BLA BLA BLA BLA BLA BLA BLA BLA BLA BLA BLA BLA BLA BLA BLA BLA 
BLA BLA BLA BLA BLA BLA BLA BLA BLA BLA BLA BLA BLA BLA BLA BLA BLA BLA BLA BLA 
BLA BLA BLA BLA BLA BLA BLA BLA BLA BLA BLA BLA BLA BLA BLA BLA BLA BLA BLA BLA 
BLA BLA BLA BLA BLA BLA BLA BLA BLA BLA BLA BLA BLA BLA BLA BLA BLA BLA BLA BLA 
BLA BLA BLA BLA BLA BLA BLA BLA BLA BLA BLA BLA BLA BLA BLA BLA BLA BLA BLA BLA 
BLA BLA BLA BLA BLA BLA BLA BLA BLA BLA BLA BLA BLA BLA BLA BLA BLA BLA BLA BLA 
BLA BLA BLA BLA BLA BLA BLA BLA BLA BLA BLA BLA BLA BLA BLA BLA BLA BLA BLA BLA 
BLA BLA BLA BLA BLA BLA BLA BLA BLA BLA BLA BLA BLA BLA BLA BLA BLA BLA BLA BLA 
BLA BLA BLA BLA BLA BLA BLA BLA BLA BLA BLA BLA BLA BLA BLA BLA BLA BLA BLA BLA 
BLA BLA BLA BLA BLA BLA BLA BLA BLA BLA BLA BLA BLA BLA BLA BLA BLA BLA BLA BLA 
BLA BLA BLA BLA BLA BLA BLA BLA BLA BLA BLA BLA BLA BLA BLA BLA BLA BLA BLA BLA 
BLA BLA BLA BLA BLA BLA BLA BLA BLA BLA BLA BLA BLA BLA BLA BLA BLA BLA BLA BLA 
BLA BLA BLA BLA BLA BLA BLA BLA BLA BLA BLA BLA BLA BLA BLA BLA BLA BLA BLA BLA 
BLA BLA BLA BLA BLA BLA BLA BLA BLA BLA BLA BLA BLA BLA BLA BLA BLA BLA BLA BLA 
BLA BLA BLA BLA BLA BLA BLA BLA BLA BLA BLA BLA BLA BLA BLA BLA BLA BLA BLA BLA 
BLA BLA BLA BLA BLA BLA BLA BLA BLA BLA BLA BLA BLA BLA BLA BLA BLA BLA BLA BLA 
BLA BLA BLA BLA BLA BLA BLA BLA BLA BLA BLA BLA BLA BLA BLA BLA BLA BLA BLA BLA 
BLA BLA BLA BLA BLA BLA BLA BLA BLA BLA BLA BLA BLA BLA BLA BLA BLA BLA BLA BLA 
BLA BLA BLA BLA BLA BLA BLA BLA BLA BLA BLA BLA BLA BLA BLA BLA BLA BLA BLA BLA 
BLA BLA BLA BLA BLA BLA BLA BLA BLA BLA BLA BLA BLA BLA BLA BLA BLA BLA BLA BLA 
BLA BLA BLA BLA BLA BLA BLA BLA BLA BLA BLA BLA BLA BLA BLA BLA BLA BLA BLA BLA 
BLA BLA BLA BLA BLA BLA BLA BLA BLA BLA BLA BLA BLA BLA BLA BLA BLA BLA BLA BLA 
BLA BLA BLA BLA BLA BLA BLA BLA BLA BLA BLA BLA BLA BLA BLA BLA BLA BLA BLA BLA 
BLA BLA BLA BLA BLA BLA BLA BLA BLA BLA BLA BLA BLA BLA BLA BLA BLA BLA BLA BLA 
BLA BLA BLA BLA BLA BLA BLA BLA BLA BLA BLA BLA BLA BLA BLA BLA BLA BLA BLA BLA 
BLA BLA BLA BLA BLA BLA BLA BLA BLA BLA BLA BLA BLA BLA BLA BLA BLA BLA BLA BLA 
BLA BLA BLA BLA BLA BLA BLA BLA BLA BLA BLA BLA BLA BLA BLA BLA BLA BLA BLA BLA 
BLA BLA BLA BLA BLA BLA BLA BLA BLA BLA BLA BLA BLA BLA BLA BLA BLA BLA BLA BLA 
BLA BLA BLA BLA BLA BLA BLA BLA BLA BLA BLA BLA BLA BLA BLA BLA BLA BLA BLA BLA 
BLA BLA BLA BLA BLA BLA BLA BLA BLA BLA BLA BLA BLA BLA BLA BLA BLA BLA BLA BLA 
BLA BLA BLA BLA BLA BLA BLA BLA BLA BLA BLA BLA BLA BLA BLA BLA BLA BLA BLA BLA 
BLA BLA BLA BLA BLA BLA BLA BLA BLA BLA BLA BLA BLA BLA BLA BLA BLA BLA BLA BLA 
BLA BLA BLA BLA BLA BLA BLA BLA BLA BLA BLA BLA BLA BLA BLA BLA BLA BLA BLA BLA 
BLA BLA BLA BLA BLA BLA BLA BLA BLA BLA BLA BLA BLA BLA BLA BLA BLA BLA BLA BLA 
BLA BLA BLA BLA BLA BLA BLA BLA BLA BLA BLA BLA BLA BLA BLA BLA BLA BLA BLA BLA 
BLA BLA BLA BLA BLA BLA BLA BLA BLA BLA BLA BLA BLA BLA BLA BLA BLA BLA BLA BLA 
BLA BLA BLA BLA BLA BLA BLA BLA BLA BLA BLA BLA BLA BLA BLA BLA BLA BLA BLA BLA 
BLA BLA BLA BLA BLA BLA BLA BLA BLA BLA BLA BLA BLA BLA BLA BLA BLA BLA BLA BLA 
BLA BLA BLA BLA BLA BLA BLA BLA BLA BLA BLA BLA BLA BLA BLA BLA BLA BLA BLA BLA 
BLA BLA BLA BLA BLA BLA BLA BLA BLA BLA BLA BLA BLA BLA BLA BLA BLA BLA BLA BLA 
BLA BLA BLA BLA BLA BLA BLA BLA BLA BLA BLA BLA BLA BLA BLA BLA BLA BLA BLA BLA 
BLA BLA BLA BLA BLA BLA BLA BLA BLA BLA BLA BLA BLA BLA BLA BLA BLA BLA BLA BLA 
BLA BLA BLA BLA BLA BLA BLA BLA BLA BLA BLA BLA BLA BLA BLA BLA BLA BLA BLA BLA 
BLA BLA BLA BLA BLA BLA BLA BLA BLA BLA BLA BLA BLA BLA BLA BLA BLA BLA BLA BLA 
BLA BLA BLA BLA BLA BLA BLA BLA BLA BLA BLA BLA BLA BLA BLA BLA BLA BLA BLA BLA 
BLA BLA BLA BLA BLA BLA BLA BLA BLA BLA BLA BLA BLA BLA BLA BLA BLA BLA BLA BLA 
BLA BLA BLA BLA BLA BLA BLA BLA BLA BLA BLA BLA BLA BLA BLA BLA BLA BLA BLA BLA 
BLA BLA BLA BLA BLA BLA BLA BLA BLA BLA BLA BLA BLA BLA BLA BLA BLA BLA BLA BLA 
BLA BLA BLA BLA BLA BLA BLA BLA BLA BLA BLA BLA BLA BLA BLA BLA BLA BLA BLA BLA 
BLA BLA BLA BLA BLA BLA BLA BLA BLA BLA BLA BLA BLA BLA BLA BLA BLA BLA BLA BLA 
BLA BLA BLA BLA BLA BLA BLA BLA BLA BLA BLA BLA BLA BLA BLA BLA BLA BLA BLA BLA 
BLA BLA BLA BLA BLA BLA BLA BLA BLA BLA BLA BLA BLA BLA BLA BLA BLA BLA BLA BLA 
BLA BLA BLA BLA BLA BLA BLA BLA BLA BLA BLA BLA BLA BLA BLA BLA BLA BLA BLA BLA 
BLA BLA BLA BLA BLA BLA BLA BLA BLA BLA BLA BLA BLA BLA BLA BLA BLA BLA BLA BLA 
BLA BLA BLA BLA BLA BLA BLA BLA BLA BLA BLA BLA BLA BLA BLA BLA BLA BLA BLA BLA 
BLA BLA BLA BLA BLA BLA BLA BLA BLA BLA BLA BLA BLA BLA BLA BLA BLA BLA BLA BLA 
BLA BLA BLA BLA BLA BLA BLA BLA BLA BLA BLA BLA BLA BLA BLA BLA BLA BLA BLA BLA 
BLA BLA BLA BLA BLA BLA BLA BLA BLA BLA BLA BLA BLA BLA BLA BLA BLA BLA BLA BLA 
BLA BLA BLA BLA BLA BLA BLA BLA BLA BLA BLA BLA BLA BLA BLA BLA BLA BLA BLA BLA 
BLA BLA BLA BLA BLA BLA BLA BLA BLA BLA BLA BLA BLA BLA BLA BLA BLA BLA BLA BLA 
BLA BLA BLA BLA BLA BLA BLA BLA BLA BLA BLA BLA BLA BLA BLA BLA BLA BLA BLA BLA 
BLA BLA BLA BLA BLA BLA BLA BLA BLA BLA BLA BLA BLA BLA BLA BLA BLA BLA BLA BLA 
BLA BLA BLA BLA BLA BLA BLA BLA BLA BLA BLA BLA BLA BLA BLA BLA BLA BLA BLA BLA 
BLA BLA BLA BLA BLA BLA BLA BLA BLA BLA BLA BLA BLA BLA BLA BLA BLA BLA BLA BLA 
BLA BLA BLA BLA BLA BLA BLA BLA BLA BLA BLA BLA BLA BLA BLA BLA BLA BLA BLA BLA 
BLA BLA BLA BLA BLA BLA BLA BLA BLA BLA BLA BLA BLA BLA BLA BLA BLA BLA BLA BLA 
BLA BLA BLA BLA BLA BLA BLA BLA BLA BLA BLA BLA BLA BLA BLA BLA BLA BLA BLA BLA 
BLA BLA BLA BLA BLA BLA BLA BLA BLA BLA BLA BLA BLA BLA BLA BLA BLA BLA BLA BLA 
BLA BLA BLA BLA BLA BLA BLA BLA BLA BLA BLA BLA BLA BLA BLA BLA BLA BLA BLA BLA 
BLA BLA BLA BLA BLA BLA BLA BLA BLA BLA BLA BLA BLA BLA BLA BLA BLA BLA BLA BLA 
BLA BLA BLA BLA BLA BLA BLA BLA BLA BLA BLA BLA BLA BLA BLA BLA BLA BLA BLA BLA 
BLA BLA BLA BLA BLA BLA BLA BLA BLA BLA BLA BLA BLA BLA BLA BLA BLA BLA BLA BLA 
BLA BLA BLA BLA BLA BLA BLA BLA BLA BLA BLA BLA BLA BLA BLA BLA BLA BLA BLA BLA 
BLA BLA BLA BLA BLA BLA BLA BLA BLA BLA BLA BLA BLA BLA BLA BLA BLA BLA BLA BLA 
BLA BLA BLA BLA BLA BLA BLA BLA BLA BLA BLA BLA BLA BLA BLA BLA BLA BLA BLA BLA 
BLA BLA BLA BLA BLA BLA BLA BLA BLA BLA BLA BLA BLA BLA BLA BLA BLA BLA BLA BLA 
BLA BLA BLA BLA BLA BLA BLA BLA BLA BLA BLA BLA BLA BLA BLA BLA BLA BLA BLA BLA 
BLA BLA BLA BLA BLA BLA BLA BLA BLA BLA BLA BLA BLA BLA BLA BLA BLA BLA BLA BLA 
BLA BLA BLA BLA BLA BLA BLA BLA BLA BLA BLA BLA BLA BLA BLA BLA BLA BLA BLA BLA 
BLA BLA BLA BLA BLA BLA BLA BLA BLA BLA BLA BLA BLA BLA BLA BLA BLA BLA BLA BLA 
BLA BLA BLA BLA BLA BLA BLA BLA BLA BLA BLA BLA BLA BLA BLA BLA BLA BLA BLA BLA 
BLA BLA BLA BLA BLA BLA BLA BLA BLA BLA BLA BLA BLA BLA BLA BLA BLA BLA BLA BLA 
BLA BLA BLA BLA BLA BLA BLA BLA BLA BLA BLA BLA BLA BLA BLA BLA BLA BLA BLA BLA 
BLA BLA BLA BLA BLA BLA BLA BLA BLA BLA BLA BLA BLA BLA BLA BLA BLA BLA BLA BLA 
BLA BLA BLA BLA BLA BLA BLA BLA BLA BLA BLA BLA BLA BLA BLA BLA BLA BLA BLA BLA 
BLA BLA BLA BLA BLA BLA BLA BLA BLA BLA BLA BLA BLA BLA BLA BLA BLA BLA BLA BLA 
BLA BLA BLA BLA BLA BLA BLA BLA BLA BLA BLA BLA BLA BLA BLA BLA BLA BLA BLA BLA 
BLA BLA BLA BLA BLA BLA BLA BLA BLA BLA BLA BLA BLA BLA BLA BLA BLA BLA BLA BLA 
BLA BLA BLA BLA BLA BLA BLA BLA BLA BLA BLA BLA BLA BLA BLA BLA BLA BLA BLA BLA 
BLA BLA BLA BLA BLA BLA BLA BLA BLA BLA BLA BLA BLA BLA BLA BLA BLA BLA BLA BLA 
BLA BLA BLA BLA BLA BLA BLA BLA BLA BLA BLA BLA BLA BLA BLA BLA BLA BLA BLA BLA 
BLA BLA BLA BLA BLA BLA BLA BLA BLA BLA BLA BLA BLA BLA BLA BLA BLA BLA BLA BLA 
BLA BLA BLA BLA BLA BLA BLA BLA BLA BLA BLA BLA BLA BLA BLA BLA BLA BLA BLA BLA 
BLA BLA BLA BLA BLA BLA BLA BLA BLA BLA BLA BLA BLA BLA BLA BLA BLA BLA BLA BLA 
BLA BLA BLA BLA BLA BLA BLA BLA BLA BLA BLA BLA BLA BLA BLA BLA BLA BLA BLA BLA 
BLA BLA BLA BLA BLA BLA BLA BLA BLA BLA BLA BLA BLA BLA BLA BLA BLA BLA BLA BLA 
BLA BLA BLA BLA BLA BLA BLA BLA BLA BLA BLA BLA BLA BLA BLA BLA BLA BLA BLA BLA 
BLA BLA BLA BLA BLA BLA BLA BLA BLA BLA BLA BLA BLA BLA BLA BLA BLA BLA BLA BLA 
BLA BLA BLA BLA BLA BLA BLA BLA BLA BLA BLA BLA BLA BLA BLA BLA BLA BLA BLA BLA 
BLA BLA BLA BLA BLA BLA BLA BLA BLA BLA BLA BLA BLA BLA BLA BLA BLA BLA BLA BLA 
BLA BLA BLA BLA BLA BLA BLA BLA BLA BLA BLA BLA BLA BLA BLA BLA BLA BLA BLA BLA 
BLA BLA BLA BLA BLA BLA BLA BLA BLA BLA BLA BLA BLA BLA BLA BLA BLA BLA BLA BLA 
BLA BLA BLA BLA BLA BLA BLA BLA BLA BLA BLA BLA BLA BLA BLA BLA BLA BLA BLA BLA 
BLA BLA BLA BLA BLA BLA BLA BLA BLA BLA BLA BLA BLA BLA BLA BLA BLA BLA BLA BLA 
BLA BLA BLA BLA BLA BLA BLA BLA BLA BLA BLA BLA BLA BLA BLA BLA BLA BLA BLA BLA 
BLA BLA BLA BLA BLA BLA BLA BLA BLA BLA BLA BLA BLA BLA BLA BLA BLA BLA BLA BLA 
BLA BLA BLA BLA BLA BLA BLA BLA BLA BLA BLA BLA BLA BLA BLA BLA BLA BLA BLA BLA 
BLA BLA BLA BLA BLA BLA BLA BLA BLA BLA BLA BLA BLA BLA BLA BLA BLA BLA BLA BLA 
BLA BLA BLA BLA BLA BLA BLA BLA BLA BLA BLA BLA BLA BLA BLA BLA BLA BLA BLA BLA 
BLA BLA BLA BLA BLA BLA BLA BLA BLA BLA BLA BLA BLA BLA BLA BLA BLA BLA BLA BLA 
BLA BLA BLA BLA BLA BLA BLA BLA BLA BLA BLA BLA BLA BLA BLA BLA BLA BLA BLA BLA 
BLA BLA BLA BLA BLA BLA BLA BLA BLA BLA BLA BLA BLA BLA BLA BLA BLA BLA BLA BLA 
BLA BLA BLA BLA BLA BLA BLA BLA BLA BLA BLA BLA BLA BLA BLA BLA BLA BLA BLA BLA 
BLA BLA BLA BLA BLA BLA BLA BLA BLA BLA BLA BLA BLA BLA BLA BLA BLA BLA BLA BLA 
BLA BLA BLA BLA BLA BLA BLA BLA BLA BLA BLA BLA BLA BLA BLA BLA BLA BLA BLA BLA 
BLA BLA BLA BLA BLA BLA BLA BLA BLA BLA BLA BLA BLA BLA BLA BLA BLA BLA BLA BLA 
BLA BLA BLA BLA BLA BLA BLA BLA BLA BLA BLA BLA BLA BLA BLA BLA BLA BLA BLA BLA 
BLA BLA BLA BLA BLA BLA BLA BLA BLA BLA BLA BLA BLA BLA BLA BLA BLA BLA BLA BLA 
BLA BLA BLA BLA BLA BLA BLA BLA BLA BLA BLA BLA BLA BLA BLA BLA BLA BLA BLA BLA 
BLA BLA BLA BLA BLA BLA BLA BLA BLA BLA BLA BLA BLA BLA BLA BLA BLA BLA BLA BLA 
BLA BLA BLA BLA BLA BLA BLA BLA BLA BLA BLA BLA BLA BLA BLA BLA BLA BLA BLA BLA 
BLA BLA BLA BLA BLA BLA BLA BLA BLA BLA BLA BLA BLA BLA BLA BLA BLA BLA BLA BLA 
BLA BLA BLA BLA BLA BLA BLA BLA BLA BLA BLA BLA BLA BLA BLA BLA BLA BLA BLA BLA 
BLA BLA BLA BLA BLA BLA BLA BLA BLA BLA BLA BLA BLA BLA BLA BLA BLA BLA BLA BLA 
BLA BLA BLA BLA BLA BLA BLA BLA BLA BLA BLA BLA BLA BLA BLA BLA BLA BLA BLA BLA 
BLA BLA BLA BLA BLA BLA BLA BLA BLA BLA BLA BLA BLA BLA BLA BLA BLA BLA BLA BLA 
BLA BLA BLA BLA BLA BLA BLA BLA BLA BLA BLA BLA BLA BLA BLA BLA BLA BLA BLA BLA 
BLA BLA BLA BLA BLA BLA BLA BLA BLA BLA BLA BLA BLA BLA BLA BLA BLA BLA BLA BLA 
BLA BLA BLA BLA BLA BLA BLA BLA BLA BLA BLA BLA BLA BLA BLA BLA BLA BLA BLA BLA 
BLA BLA BLA BLA BLA BLA BLA BLA BLA BLA BLA BLA BLA BLA BLA BLA BLA BLA BLA BLA 
BLA BLA BLA BLA BLA BLA BLA BLA BLA BLA BLA BLA BLA BLA BLA BLA BLA BLA BLA BLA 
BLA BLA BLA BLA BLA BLA BLA BLA BLA BLA BLA BLA BLA BLA BLA BLA BLA BLA BLA BLA 
BLA BLA BLA BLA BLA BLA BLA BLA BLA BLA BLA BLA BLA BLA BLA BLA BLA BLA BLA BLA 
BLA BLA BLA BLA BLA BLA BLA BLA BLA BLA BLA BLA BLA BLA BLA BLA BLA BLA BLA BLA 
BLA BLA BLA BLA BLA BLA BLA BLA BLA BLA BLA BLA BLA BLA BLA BLA BLA BLA BLA BLA 
BLA BLA BLA BLA BLA BLA BLA BLA BLA BLA BLA BLA BLA BLA BLA BLA BLA BLA BLA BLA 
BLA BLA BLA BLA BLA BLA BLA BLA BLA BLA BLA BLA BLA BLA BLA BLA BLA BLA BLA BLA 
BLA BLA BLA BLA BLA BLA BLA BLA BLA BLA BLA BLA BLA BLA BLA BLA BLA BLA BLA BLA 
BLA BLA BLA BLA BLA BLA BLA BLA BLA BLA BLA BLA BLA BLA BLA BLA BLA BLA BLA BLA 
BLA BLA BLA BLA BLA BLA BLA BLA BLA BLA BLA BLA BLA BLA BLA BLA BLA BLA BLA BLA 
BLA BLA BLA BLA BLA BLA BLA BLA BLA BLA BLA BLA BLA BLA BLA BLA BLA BLA BLA BLA 
BLA BLA BLA BLA BLA BLA BLA BLA BLA BLA BLA BLA BLA BLA BLA BLA BLA BLA BLA BLA 
BLA BLA BLA BLA BLA BLA BLA BLA BLA BLA BLA BLA BLA BLA BLA BLA BLA BLA BLA BLA 
BLA BLA BLA BLA BLA BLA BLA BLA BLA BLA BLA BLA BLA BLA BLA BLA BLA BLA BLA BLA 
BLA BLA BLA BLA BLA BLA BLA BLA BLA BLA BLA BLA BLA BLA BLA BLA BLA BLA BLA BLA 
BLA BLA BLA BLA BLA BLA BLA BLA BLA BLA BLA BLA BLA BLA BLA BLA BLA BLA BLA BLA 
BLA BLA BLA BLA BLA BLA BLA BLA BLA BLA BLA BLA BLA BLA BLA BLA BLA BLA BLA BLA 
BLA BLA BLA BLA BLA BLA BLA BLA BLA BLA BLA BLA BLA BLA BLA BLA BLA BLA BLA BLA 
BLA BLA BLA BLA BLA BLA BLA BLA BLA BLA BLA BLA BLA BLA BLA BLA BLA BLA BLA BLA 
BLA BLA BLA BLA BLA BLA BLA BLA BLA BLA BLA BLA BLA BLA BLA BLA BLA BLA BLA BLA 
BLA BLA BLA BLA BLA BLA BLA BLA BLA BLA BLA BLA BLA BLA BLA BLA BLA BLA BLA BLA 
BLA BLA BLA BLA BLA BLA BLA BLA BLA BLA BLA BLA BLA BLA BLA BLA BLA BLA BLA BLA 
BLA BLA BLA BLA BLA BLA BLA BLA BLA BLA BLA BLA BLA BLA BLA BLA BLA BLA BLA BLA 
BLA BLA BLA BLA BLA BLA BLA BLA BLA BLA BLA BLA BLA BLA BLA BLA BLA BLA BLA BLA 
BLA BLA BLA BLA BLA BLA BLA BLA BLA BLA BLA BLA BLA BLA BLA BLA BLA BLA BLA BLA 
BLA BLA BLA BLA BLA BLA BLA BLA BLA BLA BLA BLA BLA BLA BLA BLA BLA BLA BLA BLA 
BLA BLA BLA BLA BLA BLA BLA BLA BLA BLA BLA BLA BLA BLA BLA BLA BLA BLA BLA BLA 
BLA BLA BLA BLA BLA BLA BLA BLA BLA BLA BLA BLA BLA BLA BLA BLA BLA BLA BLA BLA 
BLA BLA BLA BLA BLA BLA BLA BLA BLA BLA BLA BLA BLA BLA BLA BLA BLA BLA BLA BLA 
BLA BLA BLA BLA BLA BLA BLA BLA BLA BLA BLA BLA BLA BLA BLA BLA BLA BLA BLA BLA 
BLA BLA BLA BLA BLA BLA BLA BLA BLA BLA BLA BLA BLA BLA BLA BLA BLA BLA BLA BLA 
BLA BLA BLA BLA BLA BLA BLA BLA BLA BLA BLA BLA BLA BLA BLA BLA BLA BLA BLA BLA 
BLA BLA BLA BLA BLA BLA BLA BLA BLA BLA BLA BLA BLA BLA BLA BLA BLA BLA BLA BLA 
BLA BLA BLA BLA BLA BLA BLA BLA BLA BLA BLA BLA BLA BLA BLA BLA BLA BLA BLA BLA 
BLA BLA BLA BLA BLA BLA BLA BLA BLA BLA BLA BLA BLA BLA BLA BLA BLA BLA BLA BLA 
BLA BLA BLA BLA BLA BLA BLA BLA BLA BLA BLA BLA BLA BLA BLA BLA BLA BLA BLA BLA 
BLA BLA BLA BLA BLA BLA BLA BLA BLA BLA BLA BLA BLA BLA BLA BLA BLA BLA BLA BLA 
BLA BLA BLA BLA BLA BLA BLA BLA BLA BLA BLA BLA BLA BLA BLA BLA BLA BLA BLA BLA 
BLA BLA BLA BLA BLA BLA BLA BLA BLA BLA BLA BLA BLA BLA BLA BLA BLA BLA BLA BLA 
BLA BLA BLA BLA BLA BLA BLA BLA BLA BLA BLA BLA BLA BLA BLA BLA BLA BLA BLA BLA 
BLA BLA BLA BLA BLA BLA BLA BLA BLA BLA BLA BLA BLA BLA BLA BLA BLA BLA BLA BLA 
BLA BLA BLA BLA BLA BLA BLA BLA BLA BLA BLA BLA BLA BLA BLA BLA BLA BLA BLA BLA 
BLA BLA BLA BLA BLA BLA BLA BLA BLA BLA BLA BLA BLA BLA BLA BLA BLA BLA BLA BLA 
BLA BLA BLA BLA BLA BLA BLA BLA BLA BLA BLA BLA BLA BLA BLA BLA BLA BLA BLA BLA 
BLA BLA BLA BLA BLA BLA BLA BLA BLA BLA BLA BLA BLA BLA BLA BLA BLA BLA BLA BLA 
BLA BLA BLA BLA BLA BLA BLA BLA BLA BLA BLA BLA BLA BLA BLA BLA BLA BLA BLA BLA 
BLA BLA BLA BLA BLA BLA BLA BLA BLA BLA BLA BLA BLA BLA BLA BLA BLA BLA BLA BLA 
BLA BLA BLA BLA BLA BLA BLA BLA BLA BLA BLA BLA BLA BLA BLA BLA BLA BLA BLA BLA 
BLA BLA BLA BLA BLA BLA BLA BLA BLA BLA BLA BLA BLA BLA BLA BLA BLA BLA BLA BLA 
BLA BLA BLA BLA BLA BLA BLA BLA BLA BLA BLA BLA BLA BLA BLA BLA BLA BLA BLA BLA 
BLA BLA BLA BLA BLA BLA BLA BLA BLA BLA BLA BLA BLA BLA BLA BLA BLA BLA BLA BLA 
BLA BLA BLA BLA BLA BLA BLA BLA BLA BLA BLA BLA BLA BLA BLA BLA BLA BLA BLA BLA 
BLA BLA BLA BLA BLA BLA BLA BLA BLA BLA BLA BLA BLA BLA BLA BLA BLA BLA BLA BLA 
BLA BLA BLA BLA BLA BLA BLA BLA BLA BLA BLA BLA BLA BLA BLA BLA BLA BLA BLA BLA 
BLA BLA BLA BLA BLA BLA BLA BLA BLA BLA BLA BLA BLA BLA BLA BLA BLA BLA BLA BLA 
BLA BLA BLA BLA BLA BLA BLA BLA BLA BLA BLA BLA BLA BLA BLA BLA BLA BLA BLA BLA 
BLA BLA BLA BLA BLA BLA BLA BLA BLA BLA BLA BLA BLA BLA BLA BLA BLA BLA BLA BLA 
BLA BLA BLA BLA BLA BLA BLA BLA BLA BLA BLA BLA BLA BLA BLA BLA BLA BLA BLA BLA 
BLA BLA BLA BLA BLA BLA BLA BLA BLA BLA BLA BLA BLA BLA BLA BLA BLA BLA BLA BLA 
BLA BLA BLA BLA BLA BLA BLA BLA BLA BLA BLA BLA BLA BLA BLA BLA BLA BLA BLA BLA 
BLA BLA BLA BLA BLA BLA BLA BLA BLA BLA BLA BLA BLA BLA BLA BLA BLA BLA BLA BLA 
BLA BLA BLA BLA BLA BLA BLA BLA BLA BLA BLA BLA BLA BLA BLA BLA BLA BLA BLA BLA 
BLA BLA BLA BLA BLA BLA BLA BLA BLA BLA BLA BLA BLA BLA BLA BLA BLA BLA BLA BLA 
BLA BLA BLA BLA BLA BLA BLA BLA BLA BLA BLA BLA BLA BLA BLA BLA BLA BLA BLA BLA 
BLA BLA BLA BLA BLA BLA BLA BLA BLA BLA BLA BLA BLA BLA BLA BLA BLA BLA BLA BLA 
BLA BLA BLA BLA BLA BLA BLA BLA BLA BLA BLA BLA BLA BLA BLA BLA BLA BLA BLA BLA 
BLA BLA BLA BLA BLA BLA BLA BLA BLA BLA BLA BLA BLA BLA BLA BLA BLA BLA BLA BLA 
BLA BLA BLA BLA BLA BLA BLA BLA BLA BLA BLA BLA BLA BLA BLA BLA BLA BLA BLA BLA 
BLA BLA BLA BLA BLA BLA BLA BLA BLA BLA BLA BLA BLA BLA BLA BLA BLA BLA BLA BLA 
BLA BLA BLA BLA BLA BLA BLA BLA BLA BLA BLA BLA BLA BLA BLA BLA BLA BLA BLA BLA 
BLA BLA BLA BLA BLA BLA BLA BLA BLA BLA BLA BLA BLA BLA BLA BLA BLA BLA BLA BLA 
BLA BLA BLA BLA BLA BLA BLA BLA BLA BLA BLA BLA BLA BLA BLA BLA BLA BLA BLA BLA 
BLA BLA BLA BLA BLA BLA BLA BLA BLA BLA BLA BLA BLA BLA BLA BLA BLA BLA BLA BLA 
BLA BLA BLA BLA BLA BLA BLA BLA BLA BLA BLA BLA BLA BLA BLA BLA BLA BLA BLA BLA 
BLA BLA BLA BLA BLA BLA BLA BLA BLA BLA BLA BLA BLA BLA BLA BLA BLA BLA BLA BLA 
BLA BLA BLA BLA BLA BLA BLA BLA BLA BLA BLA BLA BLA BLA BLA BLA BLA BLA BLA BLA 
BLA BLA BLA BLA BLA BLA BLA BLA BLA BLA BLA BLA BLA BLA BLA BLA BLA BLA BLA BLA 
BLA BLA BLA BLA BLA BLA BLA BLA BLA BLA BLA BLA BLA BLA BLA BLA BLA BLA BLA BLA 
BLA BLA BLA BLA BLA BLA BLA BLA BLA BLA BLA BLA BLA BLA BLA BLA BLA BLA BLA BLA 
BLA BLA BLA BLA BLA BLA BLA BLA BLA BLA BLA BLA BLA BLA BLA BLA BLA BLA BLA BLA 
BLA BLA BLA BLA BLA BLA BLA BLA BLA BLA BLA BLA BLA BLA BLA BLA BLA BLA BLA BLA 
BLA BLA BLA BLA BLA BLA BLA BLA BLA BLA BLA BLA BLA BLA BLA BLA BLA BLA BLA BLA 
BLA BLA BLA BLA BLA BLA BLA BLA BLA BLA BLA BLA BLA BLA BLA BLA BLA BLA BLA BLA 
BLA BLA BLA BLA BLA BLA BLA BLA BLA BLA BLA BLA BLA BLA BLA BLA BLA BLA BLA BLA 
BLA BLA BLA BLA BLA BLA BLA BLA BLA BLA BLA BLA BLA BLA BLA BLA BLA BLA BLA BLA 
BLA BLA BLA BLA BLA BLA BLA BLA BLA BLA BLA BLA BLA BLA BLA BLA BLA BLA BLA BLA 
BLA BLA BLA BLA BLA BLA BLA BLA BLA BLA BLA BLA BLA BLA BLA BLA BLA BLA BLA BLA 
BLA BLA BLA BLA BLA BLA BLA BLA BLA BLA BLA BLA BLA BLA BLA BLA BLA BLA BLA BLA 
BLA BLA BLA BLA BLA BLA BLA BLA BLA BLA BLA BLA BLA BLA BLA BLA BLA BLA BLA BLA 
BLA BLA BLA BLA BLA BLA BLA BLA BLA BLA BLA BLA BLA BLA BLA BLA BLA BLA BLA BLA 
BLA BLA BLA BLA BLA BLA BLA BLA BLA BLA BLA BLA BLA BLA BLA BLA BLA BLA BLA BLA 
BLA BLA BLA BLA BLA BLA BLA BLA BLA BLA BLA BLA BLA BLA BLA BLA BLA BLA BLA BLA 
BLA BLA BLA BLA BLA BLA BLA BLA BLA BLA BLA BLA BLA BLA BLA BLA BLA BLA BLA BLA 
BLA BLA BLA BLA BLA BLA BLA BLA BLA BLA BLA BLA BLA BLA BLA BLA BLA BLA BLA BLA 
BLA BLA BLA BLA BLA BLA BLA BLA BLA BLA BLA BLA BLA BLA BLA BLA BLA BLA BLA BLA 
BLA BLA BLA BLA BLA BLA BLA BLA BLA BLA BLA BLA BLA BLA BLA BLA BLA BLA BLA BLA 
BLA BLA BLA BLA BLA BLA BLA BLA BLA BLA BLA BLA BLA BLA BLA BLA BLA BLA BLA BLA 
BLA BLA BLA BLA BLA BLA BLA BLA BLA BLA BLA BLA BLA BLA BLA BLA BLA BLA BLA BLA 
BLA BLA BLA BLA BLA BLA BLA BLA BLA BLA BLA BLA BLA BLA BLA BLA BLA BLA BLA BLA 
BLA BLA BLA BLA BLA BLA BLA BLA BLA BLA BLA BLA BLA BLA BLA BLA BLA BLA BLA BLA 
BLA BLA BLA BLA BLA BLA BLA BLA BLA BLA BLA BLA BLA BLA BLA BLA BLA BLA BLA BLA 
BLA BLA BLA BLA BLA BLA BLA BLA BLA BLA BLA BLA BLA BLA BLA BLA BLA BLA BLA BLA 
BLA BLA BLA BLA BLA BLA BLA BLA BLA BLA BLA BLA BLA BLA BLA BLA BLA BLA BLA BLA 
BLA BLA BLA BLA BLA BLA BLA BLA BLA BLA BLA BLA BLA BLA BLA BLA BLA BLA BLA BLA 
BLA BLA BLA BLA BLA BLA BLA BLA BLA BLA BLA BLA BLA BLA BLA BLA BLA BLA BLA BLA 
BLA BLA BLA BLA BLA BLA BLA BLA BLA BLA BLA BLA BLA BLA BLA BLA BLA BLA BLA BLA 
BLA BLA BLA BLA BLA BLA BLA BLA BLA BLA BLA BLA BLA BLA BLA BLA BLA BLA BLA BLA 
BLA BLA BLA BLA BLA BLA BLA BLA BLA BLA BLA BLA BLA BLA BLA BLA BLA BLA BLA BLA 
BLA BLA BLA BLA BLA BLA BLA BLA BLA BLA BLA BLA BLA BLA BLA BLA BLA BLA BLA BLA 
BLA BLA BLA BLA BLA BLA BLA BLA BLA BLA BLA BLA BLA BLA BLA BLA BLA BLA BLA BLA 
BLA BLA BLA BLA BLA BLA BLA BLA BLA BLA BLA BLA BLA BLA BLA BLA BLA BLA BLA BLA 
BLA BLA BLA BLA BLA BLA BLA BLA BLA BLA BLA BLA BLA BLA BLA BLA BLA BLA BLA BLA 
BLA BLA BLA BLA BLA BLA BLA BLA BLA BLA BLA BLA BLA BLA BLA BLA BLA BLA BLA BLA 
BLA BLA BLA BLA BLA BLA BLA BLA BLA BLA BLA BLA BLA BLA BLA BLA BLA BLA BLA BLA 
BLA BLA BLA BLA BLA BLA BLA BLA BLA BLA BLA BLA BLA BLA BLA BLA BLA BLA BLA BLA 
BLA BLA BLA BLA BLA BLA BLA BLA BLA BLA BLA BLA BLA BLA BLA BLA BLA BLA BLA BLA 
BLA BLA BLA BLA BLA BLA BLA BLA BLA BLA BLA BLA BLA BLA BLA BLA BLA BLA BLA BLA 
BLA BLA BLA BLA BLA BLA BLA BLA BLA BLA BLA BLA BLA BLA BLA BLA BLA BLA BLA BLA 
BLA BLA BLA BLA BLA BLA BLA BLA BLA BLA BLA BLA BLA BLA BLA BLA BLA BLA BLA BLA 
BLA BLA BLA BLA BLA BLA BLA BLA BLA BLA BLA BLA BLA BLA BLA BLA BLA BLA BLA BLA 
BLA BLA BLA BLA BLA BLA BLA BLA BLA BLA BLA BLA BLA BLA BLA BLA BLA BLA BLA BLA 
BLA BLA BLA BLA BLA BLA BLA BLA BLA BLA BLA BLA BLA BLA BLA BLA BLA BLA BLA BLA 
BLA BLA BLA BLA BLA BLA BLA BLA BLA BLA BLA BLA BLA BLA BLA BLA BLA BLA BLA BLA 
BLA BLA BLA BLA BLA BLA BLA BLA BLA BLA BLA BLA BLA BLA BLA BLA BLA BLA BLA BLA 
BLA BLA BLA BLA BLA BLA BLA BLA BLA BLA BLA BLA BLA BLA BLA BLA BLA BLA BLA BLA 
BLA BLA BLA BLA BLA BLA BLA BLA BLA BLA BLA BLA BLA BLA BLA BLA BLA BLA BLA BLA 
BLA BLA BLA BLA BLA BLA BLA BLA BLA BLA BLA BLA BLA BLA BLA BLA BLA BLA BLA BLA 
BLA BLA BLA BLA BLA BLA BLA BLA BLA BLA BLA BLA BLA BLA BLA BLA BLA BLA BLA BLA 
BLA BLA BLA BLA BLA BLA BLA BLA BLA BLA BLA BLA BLA BLA BLA BLA BLA BLA BLA BLA 
BLA BLA BLA BLA BLA BLA BLA BLA BLA BLA BLA BLA BLA BLA BLA BLA BLA BLA BLA BLA 
BLA BLA BLA BLA BLA BLA BLA BLA BLA BLA BLA BLA BLA BLA BLA BLA BLA BLA BLA BLA 
BLA BLA BLA BLA BLA BLA BLA BLA BLA BLA BLA BLA BLA BLA BLA BLA BLA BLA BLA BLA 
BLA BLA BLA BLA BLA BLA BLA BLA BLA BLA BLA BLA BLA BLA BLA BLA BLA BLA BLA BLA 
BLA BLA BLA BLA BLA BLA BLA BLA BLA BLA BLA BLA BLA BLA BLA BLA BLA BLA BLA BLA 
BLA BLA BLA BLA BLA BLA BLA BLA BLA BLA BLA BLA BLA BLA BLA BLA BLA BLA BLA BLA 
BLA BLA BLA BLA BLA BLA BLA BLA BLA BLA BLA BLA BLA BLA BLA BLA BLA BLA BLA BLA 
BLA BLA BLA BLA BLA BLA BLA BLA BLA BLA BLA BLA BLA BLA BLA BLA BLA BLA BLA BLA 
BLA BLA BLA BLA BLA BLA BLA BLA BLA BLA BLA BLA BLA BLA BLA BLA BLA BLA BLA BLA 
BLA BLA BLA BLA BLA BLA BLA BLA BLA BLA BLA BLA BLA BLA BLA BLA BLA BLA BLA BLA 
BLA BLA BLA BLA BLA BLA BLA BLA BLA BLA BLA BLA BLA BLA BLA BLA BLA BLA BLA BLA 
BLA BLA BLA BLA BLA BLA BLA BLA BLA BLA BLA BLA BLA BLA BLA BLA BLA BLA BLA BLA 
BLA BLA BLA BLA BLA BLA BLA BLA BLA BLA BLA BLA BLA BLA BLA BLA BLA BLA BLA BLA 
BLA BLA BLA BLA BLA BLA BLA BLA BLA BLA BLA BLA BLA BLA BLA BLA BLA BLA BLA BLA 
BLA BLA BLA BLA BLA BLA BLA BLA BLA BLA BLA BLA BLA BLA BLA BLA BLA BLA BLA BLA 
BLA BLA BLA BLA BLA BLA BLA BLA BLA BLA BLA BLA BLA BLA BLA BLA BLA BLA BLA BLA 
BLA BLA BLA BLA BLA BLA BLA BLA BLA BLA BLA BLA BLA BLA BLA BLA BLA BLA BLA BLA 
BLA BLA BLA BLA BLA BLA BLA BLA BLA BLA BLA BLA BLA BLA BLA BLA BLA BLA BLA BLA 
BLA BLA BLA BLA BLA BLA BLA BLA BLA BLA BLA BLA BLA BLA BLA BLA BLA BLA BLA BLA 
BLA BLA BLA BLA BLA BLA BLA BLA BLA BLA BLA BLA BLA BLA BLA BLA BLA BLA BLA BLA 
BLA BLA BLA BLA BLA BLA BLA BLA BLA BLA BLA BLA BLA BLA BLA BLA BLA BLA BLA BLA 
BLA BLA BLA BLA BLA BLA BLA BLA BLA BLA BLA BLA BLA BLA BLA BLA BLA BLA BLA BLA 
BLA BLA BLA BLA BLA BLA BLA BLA BLA BLA BLA BLA BLA BLA BLA BLA BLA BLA BLA BLA 
BLA BLA BLA BLA BLA BLA BLA BLA BLA BLA BLA BLA BLA BLA BLA BLA BLA BLA BLA BLA 
BLA BLA BLA BLA BLA BLA BLA BLA BLA BLA BLA BLA BLA BLA BLA BLA BLA BLA BLA BLA 
BLA BLA BLA BLA BLA BLA BLA BLA BLA BLA BLA BLA BLA BLA BLA BLA BLA BLA BLA BLA 
BLA BLA BLA BLA BLA BLA BLA BLA BLA BLA BLA BLA BLA BLA BLA BLA BLA BLA BLA BLA 
BLA BLA BLA BLA BLA BLA BLA BLA BLA BLA BLA BLA BLA BLA BLA BLA BLA BLA BLA BLA 
BLA BLA BLA BLA BLA BLA BLA BLA BLA BLA BLA BLA BLA BLA BLA BLA BLA BLA BLA BLA 
BLA BLA BLA BLA BLA BLA BLA BLA BLA BLA BLA BLA BLA BLA BLA BLA BLA BLA BLA BLA 
BLA BLA BLA BLA BLA BLA BLA BLA BLA BLA BLA BLA BLA BLA BLA BLA BLA BLA BLA BLA 
BLA BLA BLA BLA BLA BLA BLA BLA BLA BLA BLA BLA BLA BLA BLA BLA BLA BLA BLA BLA 
BLA BLA BLA BLA BLA BLA BLA BLA BLA BLA BLA BLA BLA BLA BLA BLA BLA BLA BLA BLA 
BLA BLA BLA BLA BLA BLA BLA BLA BLA BLA BLA BLA BLA BLA BLA BLA BLA BLA BLA BLA 
BLA BLA BLA BLA BLA BLA BLA BLA BLA BLA BLA BLA BLA BLA BLA BLA BLA BLA BLA BLA 
BLA BLA BLA BLA BLA BLA BLA BLA BLA BLA BLA BLA BLA BLA BLA BLA BLA BLA BLA BLA 
BLA BLA BLA BLA BLA BLA BLA BLA BLA BLA BLA BLA BLA BLA BLA BLA BLA BLA BLA BLA 
BLA BLA BLA BLA BLA BLA BLA BLA BLA BLA BLA BLA BLA BLA BLA BLA BLA BLA BLA BLA 
BLA BLA BLA BLA BLA BLA BLA BLA BLA BLA BLA BLA BLA BLA BLA BLA BLA BLA BLA BLA 
BLA BLA BLA BLA BLA BLA BLA BLA BLA BLA BLA BLA BLA BLA BLA BLA BLA BLA BLA BLA 
BLA BLA BLA BLA BLA BLA BLA BLA BLA BLA BLA BLA BLA BLA BLA BLA BLA BLA BLA BLA 
BLA BLA BLA BLA BLA BLA BLA BLA BLA BLA BLA BLA BLA BLA BLA BLA BLA BLA BLA BLA 
BLA BLA BLA BLA BLA BLA BLA BLA BLA BLA BLA BLA BLA BLA BLA BLA BLA BLA BLA BLA 
BLA BLA BLA BLA BLA BLA BLA BLA BLA BLA BLA BLA BLA BLA BLA BLA BLA BLA BLA BLA 
BLA BLA BLA BLA BLA BLA BLA BLA BLA BLA BLA BLA BLA BLA BLA BLA BLA BLA BLA BLA 
BLA BLA BLA BLA BLA BLA BLA BLA BLA BLA BLA BLA BLA BLA BLA BLA BLA BLA BLA BLA 
BLA BLA BLA BLA BLA BLA BLA BLA BLA BLA BLA BLA BLA BLA BLA BLA BLA BLA BLA BLA 
BLA BLA BLA BLA BLA BLA BLA BLA BLA BLA BLA BLA BLA BLA BLA BLA BLA BLA BLA BLA 
BLA BLA BLA BLA BLA BLA BLA BLA BLA BLA BLA BLA BLA BLA BLA BLA BLA BLA BLA BLA 
BLA BLA BLA BLA BLA BLA BLA BLA BLA BLA BLA BLA BLA BLA BLA BLA BLA BLA BLA BLA 
BLA BLA BLA BLA BLA BLA BLA BLA BLA BLA BLA BLA BLA BLA BLA BLA BLA BLA BLA BLA 
BLA BLA BLA BLA BLA BLA BLA BLA BLA BLA BLA BLA BLA BLA BLA BLA BLA BLA BLA BLA 
BLA BLA BLA BLA BLA BLA BLA BLA BLA BLA BLA BLA BLA BLA BLA BLA BLA BLA BLA BLA 
BLA BLA BLA BLA BLA BLA BLA BLA BLA BLA BLA BLA BLA BLA BLA BLA BLA BLA BLA BLA 
BLA BLA BLA BLA BLA BLA BLA BLA BLA BLA BLA BLA BLA BLA BLA BLA BLA BLA BLA BLA 
BLA BLA BLA BLA BLA BLA BLA BLA BLA BLA BLA BLA BLA BLA BLA BLA BLA BLA BLA BLA 
BLA BLA BLA BLA BLA BLA BLA BLA BLA BLA BLA BLA BLA BLA BLA BLA BLA BLA BLA BLA 
BLA BLA BLA BLA BLA BLA BLA BLA BLA BLA BLA BLA BLA BLA BLA BLA BLA BLA BLA BLA 
BLA BLA BLA BLA BLA BLA BLA BLA BLA BLA BLA BLA BLA BLA BLA BLA BLA BLA BLA BLA 
BLA BLA BLA BLA BLA BLA BLA BLA BLA BLA BLA BLA BLA BLA BLA BLA BLA BLA BLA BLA 
BLA BLA BLA BLA BLA BLA BLA BLA BLA BLA BLA BLA BLA BLA BLA BLA BLA BLA BLA BLA 
BLA BLA BLA BLA BLA BLA BLA BLA BLA BLA BLA BLA BLA BLA BLA BLA BLA BLA BLA BLA 
BLA BLA BLA BLA BLA BLA BLA BLA BLA BLA BLA BLA BLA BLA BLA BLA BLA BLA BLA BLA 
BLA BLA BLA BLA BLA BLA BLA BLA BLA BLA BLA BLA BLA BLA BLA BLA BLA BLA BLA BLA 
BLA BLA BLA BLA BLA BLA BLA BLA BLA BLA BLA BLA BLA BLA BLA BLA BLA BLA BLA BLA 
BLA BLA BLA BLA BLA BLA BLA BLA BLA BLA BLA BLA BLA BLA BLA BLA BLA BLA BLA BLA 
BLA BLA BLA BLA BLA BLA BLA BLA BLA BLA BLA BLA BLA BLA BLA BLA BLA BLA BLA BLA 
BLA BLA BLA BLA BLA BLA BLA BLA BLA BLA BLA BLA BLA BLA BLA BLA BLA BLA BLA BLA 
BLA BLA BLA BLA BLA BLA BLA BLA BLA BLA BLA BLA BLA BLA BLA BLA BLA BLA BLA BLA 
BLA BLA BLA BLA BLA BLA BLA BLA BLA BLA BLA BLA BLA BLA BLA BLA BLA BLA BLA BLA 
BLA BLA BLA BLA BLA BLA BLA BLA BLA BLA BLA BLA BLA BLA BLA BLA BLA BLA BLA BLA 
BLA BLA BLA BLA BLA BLA BLA BLA BLA BLA BLA BLA BLA BLA BLA BLA BLA BLA BLA BLA 
BLA BLA BLA BLA BLA BLA BLA BLA BLA BLA BLA BLA BLA BLA BLA BLA BLA BLA BLA BLA 
BLA BLA BLA BLA BLA BLA BLA BLA BLA BLA BLA BLA BLA BLA BLA BLA BLA BLA BLA BLA 
BLA BLA BLA BLA BLA BLA BLA BLA BLA BLA BLA BLA BLA BLA BLA BLA BLA BLA BLA BLA 
BLA BLA BLA BLA BLA BLA BLA BLA BLA BLA BLA BLA BLA BLA BLA BLA BLA BLA BLA BLA 
BLA BLA BLA BLA BLA BLA BLA BLA BLA BLA BLA BLA BLA BLA BLA BLA BLA BLA BLA BLA 
BLA BLA BLA BLA BLA BLA BLA BLA BLA BLA BLA BLA BLA BLA BLA BLA BLA BLA BLA BLA 
BLA BLA BLA BLA BLA BLA BLA BLA BLA BLA BLA BLA BLA BLA BLA BLA BLA BLA BLA BLA 
BLA BLA BLA BLA BLA BLA BLA BLA BLA BLA BLA BLA BLA BLA BLA BLA BLA BLA BLA BLA 
BLA BLA BLA BLA BLA BLA BLA BLA BLA BLA BLA BLA BLA BLA BLA BLA BLA BLA BLA BLA 
BLA BLA BLA BLA BLA BLA BLA BLA BLA BLA BLA BLA BLA BLA BLA BLA BLA BLA BLA BLA 
BLA BLA BLA BLA BLA BLA BLA BLA BLA BLA BLA BLA BLA BLA BLA BLA BLA BLA BLA BLA 
BLA BLA BLA BLA BLA BLA BLA BLA BLA BLA BLA BLA BLA BLA BLA BLA BLA BLA BLA BLA 
BLA BLA BLA BLA BLA BLA BLA BLA BLA BLA BLA BLA BLA BLA BLA BLA BLA BLA BLA BLA 
BLA BLA BLA BLA BLA BLA BLA BLA BLA BLA BLA BLA BLA BLA BLA BLA BLA BLA BLA BLA 
BLA BLA BLA BLA BLA BLA BLA BLA BLA BLA BLA BLA BLA BLA BLA BLA BLA BLA BLA BLA 
BLA BLA BLA BLA BLA BLA BLA BLA BLA BLA BLA BLA BLA BLA BLA BLA BLA BLA BLA BLA 
BLA BLA BLA BLA BLA BLA BLA BLA BLA BLA BLA BLA BLA BLA BLA BLA BLA BLA BLA BLA 
BLA BLA BLA BLA BLA BLA BLA BLA BLA BLA BLA BLA BLA BLA BLA BLA BLA BLA BLA BLA 
BLA BLA BLA BLA BLA BLA BLA BLA BLA BLA BLA BLA BLA BLA BLA BLA BLA BLA BLA BLA 
BLA BLA BLA BLA BLA BLA BLA BLA BLA BLA BLA BLA BLA BLA BLA BLA BLA BLA BLA BLA 
BLA BLA BLA BLA BLA BLA BLA BLA BLA BLA BLA BLA BLA BLA BLA BLA BLA BLA BLA BLA 
BLA BLA BLA BLA BLA BLA BLA BLA BLA BLA BLA BLA BLA BLA BLA BLA BLA BLA BLA BLA 
BLA BLA BLA BLA BLA BLA BLA BLA BLA BLA BLA BLA BLA BLA BLA BLA BLA BLA BLA BLA 
BLA BLA BLA BLA BLA BLA BLA BLA BLA BLA BLA BLA BLA BLA BLA BLA BLA BLA BLA BLA 
BLA BLA BLA BLA BLA BLA BLA BLA BLA BLA BLA BLA BLA BLA BLA BLA BLA BLA BLA BLA 
BLA BLA BLA BLA BLA BLA BLA BLA BLA BLA BLA BLA BLA BLA BLA BLA BLA BLA BLA BLA 
BLA BLA BLA BLA BLA BLA BLA BLA BLA BLA BLA BLA BLA BLA BLA BLA BLA BLA BLA BLA 
BLA BLA BLA BLA BLA BLA BLA BLA BLA BLA BLA BLA BLA BLA BLA BLA BLA BLA BLA BLA 
BLA BLA BLA BLA BLA BLA BLA BLA BLA BLA BLA BLA BLA BLA BLA BLA BLA BLA BLA BLA 
BLA BLA BLA BLA BLA BLA BLA BLA BLA BLA BLA BLA BLA BLA BLA BLA BLA BLA BLA BLA 
BLA BLA BLA BLA BLA BLA BLA BLA BLA BLA BLA BLA BLA BLA BLA BLA BLA BLA BLA BLA 
BLA BLA BLA BLA BLA BLA BLA BLA BLA BLA BLA BLA BLA BLA BLA BLA BLA BLA BLA BLA 
BLA BLA BLA BLA BLA BLA BLA BLA BLA BLA BLA BLA BLA BLA BLA BLA BLA BLA BLA BLA 
BLA BLA BLA BLA BLA BLA BLA BLA BLA BLA BLA BLA BLA BLA BLA BLA BLA BLA BLA BLA 
BLA BLA BLA BLA BLA BLA BLA BLA BLA BLA BLA BLA BLA BLA BLA BLA BLA BLA BLA BLA 
BLA BLA BLA BLA BLA BLA BLA BLA BLA BLA BLA BLA BLA BLA BLA BLA BLA BLA BLA BLA 
BLA BLA BLA BLA BLA BLA BLA BLA BLA BLA BLA BLA BLA BLA BLA BLA BLA BLA BLA BLA 
BLA BLA BLA BLA BLA BLA BLA BLA BLA BLA BLA BLA BLA BLA BLA BLA BLA BLA BLA BLA 
BLA BLA BLA BLA BLA BLA BLA BLA BLA BLA BLA BLA BLA BLA BLA BLA BLA BLA BLA BLA 
BLA BLA BLA BLA BLA BLA BLA BLA BLA BLA BLA BLA BLA BLA BLA BLA BLA BLA BLA BLA 
BLA BLA BLA BLA BLA BLA BLA BLA BLA BLA BLA BLA BLA BLA BLA BLA BLA BLA BLA BLA 
BLA BLA BLA BLA BLA BLA BLA BLA BLA BLA BLA BLA BLA BLA BLA BLA BLA BLA BLA BLA 
BLA BLA BLA BLA BLA BLA BLA BLA BLA BLA BLA BLA BLA BLA BLA BLA BLA BLA BLA BLA 
BLA BLA BLA BLA BLA BLA BLA BLA BLA BLA BLA BLA BLA BLA BLA BLA BLA BLA BLA BLA 
BLA BLA BLA BLA BLA BLA BLA BLA BLA BLA BLA BLA BLA BLA BLA BLA BLA BLA BLA BLA 
BLA BLA BLA BLA BLA BLA BLA BLA BLA BLA BLA BLA BLA BLA BLA BLA BLA BLA BLA BLA 
BLA BLA BLA BLA BLA BLA BLA BLA BLA BLA BLA BLA BLA BLA BLA BLA BLA BLA BLA BLA 
BLA BLA BLA BLA BLA BLA BLA BLA BLA BLA BLA BLA BLA BLA BLA BLA BLA BLA BLA BLA 
BLA BLA BLA BLA BLA BLA BLA BLA BLA BLA BLA BLA BLA BLA BLA BLA BLA BLA BLA BLA 
BLA BLA BLA BLA BLA BLA BLA BLA BLA BLA BLA BLA BLA BLA BLA BLA BLA BLA BLA BLA 
BLA BLA BLA BLA BLA BLA BLA BLA BLA BLA BLA BLA BLA BLA BLA BLA BLA BLA BLA BLA 
BLA BLA BLA BLA BLA BLA BLA BLA BLA BLA BLA BLA BLA BLA BLA BLA BLA BLA BLA BLA 
BLA BLA BLA BLA BLA BLA BLA BLA BLA BLA BLA BLA BLA BLA BLA BLA BLA BLA BLA BLA 
BLA BLA BLA BLA BLA BLA BLA BLA BLA BLA BLA BLA BLA BLA BLA BLA BLA BLA BLA BLA 
BLA BLA BLA BLA BLA BLA BLA BLA BLA BLA BLA BLA BLA BLA BLA BLA BLA BLA BLA BLA 
BLA BLA BLA BLA BLA BLA BLA BLA BLA BLA BLA BLA BLA BLA BLA BLA BLA BLA BLA BLA 
BLA BLA BLA BLA BLA BLA BLA BLA BLA BLA BLA BLA BLA BLA BLA BLA BLA BLA BLA BLA 
BLA BLA BLA BLA BLA BLA BLA BLA BLA BLA BLA BLA BLA BLA BLA BLA BLA BLA BLA BLA 
BLA BLA BLA BLA BLA BLA BLA BLA BLA BLA BLA BLA BLA BLA BLA BLA BLA BLA BLA BLA 
BLA BLA BLA BLA BLA BLA BLA BLA BLA BLA BLA BLA BLA BLA BLA BLA BLA BLA BLA BLA 
BLA BLA BLA BLA BLA BLA BLA BLA BLA BLA BLA BLA BLA BLA BLA BLA BLA BLA BLA BLA 
BLA BLA BLA BLA BLA BLA BLA BLA BLA BLA BLA BLA BLA BLA BLA BLA BLA BLA BLA BLA 
BLA BLA BLA BLA BLA BLA BLA BLA BLA BLA BLA BLA BLA BLA BLA BLA BLA BLA BLA BLA 
BLA BLA BLA BLA BLA BLA BLA BLA BLA BLA BLA BLA BLA BLA BLA BLA BLA BLA BLA BLA 
BLA BLA BLA BLA BLA BLA BLA BLA BLA BLA BLA BLA BLA BLA BLA BLA BLA BLA BLA BLA 
BLA BLA BLA BLA BLA BLA BLA BLA BLA BLA BLA BLA BLA BLA BLA BLA BLA BLA BLA BLA 
BLA BLA BLA BLA BLA BLA BLA BLA BLA BLA BLA BLA BLA BLA BLA BLA BLA BLA BLA BLA 
BLA BLA BLA BLA BLA BLA BLA BLA BLA BLA BLA BLA BLA BLA BLA BLA BLA BLA BLA BLA 
BLA BLA BLA BLA BLA BLA BLA BLA BLA BLA BLA BLA BLA BLA BLA BLA BLA BLA BLA BLA 
BLA BLA BLA BLA BLA BLA BLA BLA BLA BLA BLA BLA BLA BLA BLA BLA BLA BLA BLA BLA 
BLA BLA BLA BLA BLA BLA BLA BLA BLA BLA BLA BLA BLA BLA BLA BLA BLA BLA BLA BLA 
BLA BLA BLA BLA BLA BLA BLA BLA BLA BLA BLA BLA BLA BLA BLA BLA BLA BLA BLA BLA 
BLA BLA BLA BLA BLA BLA BLA BLA BLA BLA BLA BLA BLA BLA BLA BLA BLA BLA BLA BLA 
BLA BLA BLA BLA BLA BLA BLA BLA BLA BLA BLA BLA BLA BLA BLA BLA BLA BLA BLA BLA 
BLA BLA BLA BLA BLA BLA BLA BLA BLA BLA BLA BLA BLA BLA BLA BLA BLA BLA BLA BLA 
BLA BLA BLA BLA BLA BLA BLA BLA BLA BLA BLA BLA BLA BLA BLA BLA BLA BLA BLA BLA 
BLA BLA BLA BLA BLA BLA BLA BLA BLA BLA BLA BLA BLA BLA BLA BLA BLA BLA BLA BLA 
BLA BLA BLA BLA BLA BLA BLA BLA BLA BLA BLA BLA BLA BLA BLA BLA BLA BLA BLA BLA 
BLA BLA BLA BLA BLA BLA BLA BLA BLA BLA BLA BLA BLA BLA BLA BLA BLA BLA BLA BLA 
BLA BLA BLA BLA BLA BLA BLA BLA BLA BLA BLA BLA BLA BLA BLA BLA BLA BLA BLA BLA 
BLA BLA BLA BLA BLA BLA BLA BLA BLA BLA BLA BLA BLA BLA BLA BLA BLA BLA BLA BLA 
BLA BLA BLA BLA BLA BLA BLA BLA BLA BLA BLA BLA BLA BLA BLA BLA BLA BLA BLA BLA 
BLA BLA BLA BLA BLA BLA BLA BLA BLA BLA BLA BLA BLA BLA BLA BLA BLA BLA BLA BLA 
BLA BLA BLA BLA BLA BLA BLA BLA BLA BLA BLA BLA BLA BLA BLA BLA BLA BLA BLA BLA 
BLA BLA BLA BLA BLA BLA BLA BLA BLA BLA BLA BLA BLA BLA BLA BLA BLA BLA BLA BLA 
BLA BLA BLA BLA BLA BLA BLA BLA BLA BLA BLA BLA BLA BLA BLA BLA BLA BLA BLA BLA 
BLA BLA BLA BLA BLA BLA BLA BLA BLA BLA BLA BLA BLA BLA BLA BLA BLA BLA BLA BLA 
BLA BLA BLA BLA BLA BLA BLA BLA BLA BLA BLA BLA BLA BLA BLA BLA BLA BLA BLA BLA 
BLA BLA BLA BLA BLA BLA BLA BLA BLA BLA BLA BLA BLA BLA BLA BLA BLA BLA BLA BLA 
BLA BLA BLA BLA BLA BLA BLA BLA BLA BLA BLA BLA BLA BLA BLA BLA BLA BLA BLA BLA 
BLA BLA BLA BLA BLA BLA BLA BLA BLA BLA BLA BLA BLA BLA BLA BLA BLA BLA BLA BLA 
BLA BLA BLA BLA BLA BLA BLA BLA BLA BLA BLA BLA BLA BLA BLA BLA BLA BLA BLA BLA 
BLA BLA BLA BLA BLA BLA BLA BLA BLA BLA BLA BLA BLA BLA BLA BLA BLA BLA BLA BLA 
BLA BLA BLA BLA BLA BLA BLA BLA BLA BLA BLA BLA BLA BLA BLA BLA BLA BLA BLA BLA 
BLA BLA BLA BLA BLA BLA BLA BLA BLA BLA BLA BLA BLA BLA BLA BLA BLA BLA BLA BLA 
BLA BLA BLA BLA BLA BLA BLA BLA BLA BLA BLA BLA BLA BLA BLA BLA BLA BLA BLA BLA 
BLA BLA BLA BLA BLA BLA BLA BLA BLA BLA BLA BLA BLA BLA BLA BLA BLA BLA BLA BLA 
BLA BLA BLA BLA BLA BLA BLA BLA BLA BLA BLA BLA BLA BLA BLA BLA BLA BLA BLA BLA 
BLA BLA BLA BLA BLA BLA BLA BLA BLA BLA BLA BLA BLA BLA BLA BLA BLA BLA BLA BLA 
BLA BLA BLA BLA BLA BLA BLA BLA BLA BLA BLA BLA BLA BLA BLA BLA BLA BLA BLA BLA 
BLA BLA BLA BLA BLA BLA BLA BLA BLA BLA BLA BLA BLA BLA BLA BLA BLA BLA BLA BLA 
BLA BLA BLA BLA BLA BLA BLA BLA BLA BLA BLA BLA BLA BLA BLA BLA BLA BLA BLA BLA 
BLA BLA BLA BLA BLA BLA BLA BLA BLA BLA BLA BLA BLA BLA BLA BLA BLA BLA BLA BLA 
BLA BLA BLA BLA BLA BLA BLA BLA BLA BLA BLA BLA BLA BLA BLA BLA BLA BLA BLA BLA 
BLA BLA BLA BLA BLA BLA BLA BLA BLA BLA BLA BLA BLA BLA BLA BLA BLA BLA BLA BLA 
BLA BLA BLA BLA BLA BLA BLA BLA BLA BLA BLA BLA BLA BLA BLA BLA BLA BLA BLA BLA 
BLA BLA BLA BLA BLA BLA BLA BLA BLA BLA BLA BLA BLA BLA BLA BLA BLA BLA BLA BLA 
BLA BLA BLA BLA BLA BLA BLA BLA BLA BLA BLA BLA BLA BLA BLA BLA BLA BLA BLA BLA 
BLA BLA BLA BLA BLA BLA BLA BLA BLA BLA BLA BLA BLA BLA BLA BLA BLA BLA BLA BLA 
BLA BLA BLA BLA BLA BLA BLA BLA BLA BLA BLA BLA BLA BLA BLA BLA BLA BLA BLA BLA 
BLA BLA BLA BLA BLA BLA BLA BLA BLA BLA BLA BLA BLA BLA BLA BLA BLA BLA BLA BLA 
BLA BLA BLA BLA BLA BLA BLA BLA BLA BLA BLA BLA BLA BLA BLA BLA BLA BLA BLA BLA 
BLA BLA BLA BLA BLA BLA BLA BLA BLA BLA BLA BLA BLA BLA BLA BLA BLA BLA BLA BLA 
BLA BLA BLA BLA BLA BLA BLA BLA BLA BLA BLA BLA BLA BLA BLA BLA BLA BLA BLA BLA 
BLA BLA BLA BLA BLA BLA BLA BLA BLA BLA BLA BLA BLA BLA BLA BLA BLA BLA BLA BLA 
BLA BLA BLA BLA BLA BLA BLA BLA BLA BLA BLA BLA BLA BLA BLA BLA BLA BLA BLA BLA 
BLA BLA BLA BLA BLA BLA BLA BLA BLA BLA BLA BLA BLA BLA BLA BLA BLA BLA BLA BLA 
BLA BLA BLA BLA BLA BLA BLA BLA BLA BLA BLA BLA BLA BLA BLA BLA BLA BLA BLA BLA 
BLA BLA BLA BLA BLA BLA BLA BLA BLA BLA BLA BLA BLA BLA BLA BLA BLA BLA BLA BLA 
BLA BLA BLA BLA BLA BLA BLA BLA BLA BLA BLA BLA BLA BLA BLA BLA BLA BLA BLA BLA 
BLA BLA BLA BLA BLA BLA BLA BLA BLA BLA BLA BLA BLA BLA BLA BLA BLA BLA BLA BLA 
BLA BLA BLA BLA BLA BLA BLA BLA BLA BLA BLA BLA BLA BLA BLA BLA BLA BLA BLA BLA 
BLA BLA BLA BLA BLA BLA BLA BLA BLA BLA BLA BLA BLA BLA BLA BLA BLA BLA BLA BLA 
BLA BLA BLA BLA BLA BLA BLA BLA BLA BLA BLA BLA BLA BLA BLA BLA BLA BLA BLA BLA 
BLA BLA BLA BLA BLA BLA BLA BLA BLA BLA BLA BLA BLA BLA BLA BLA BLA BLA BLA BLA 
BLA BLA BLA BLA BLA BLA BLA BLA BLA BLA BLA BLA BLA BLA BLA BLA BLA BLA BLA BLA 
BLA BLA BLA BLA BLA BLA BLA BLA BLA BLA BLA BLA BLA BLA BLA BLA BLA BLA BLA BLA 
BLA BLA BLA BLA BLA BLA BLA BLA BLA BLA BLA BLA BLA BLA BLA BLA BLA BLA BLA BLA 
BLA BLA BLA BLA BLA BLA BLA BLA BLA BLA BLA BLA BLA BLA BLA BLA BLA BLA BLA BLA 
BLA BLA BLA BLA BLA BLA BLA BLA BLA BLA BLA BLA BLA BLA BLA BLA BLA BLA BLA BLA 
BLA BLA BLA BLA BLA BLA BLA BLA BLA BLA BLA BLA BLA BLA BLA BLA BLA BLA BLA BLA 
BLA BLA BLA BLA BLA BLA BLA BLA BLA BLA BLA BLA BLA BLA BLA BLA BLA BLA BLA BLA 
BLA BLA BLA BLA BLA BLA BLA BLA BLA BLA BLA BLA BLA BLA BLA BLA BLA BLA BLA BLA 
BLA BLA BLA BLA BLA BLA BLA BLA BLA BLA BLA BLA BLA BLA BLA BLA BLA BLA BLA BLA 
BLA BLA BLA BLA BLA BLA BLA BLA BLA BLA BLA BLA BLA BLA BLA BLA BLA BLA BLA BLA 
BLA BLA BLA BLA BLA BLA BLA BLA BLA BLA BLA BLA BLA BLA BLA BLA BLA BLA BLA BLA 
BLA BLA BLA BLA BLA BLA BLA BLA BLA BLA BLA BLA BLA BLA BLA BLA BLA BLA BLA BLA 
BLA BLA BLA BLA BLA BLA BLA BLA BLA BLA BLA BLA BLA BLA BLA BLA BLA BLA BLA BLA 
BLA BLA BLA BLA BLA BLA BLA BLA BLA BLA BLA BLA BLA BLA BLA BLA BLA BLA BLA BLA 
BLA BLA BLA BLA BLA BLA BLA BLA BLA BLA BLA BLA BLA BLA BLA BLA BLA BLA BLA BLA 
BLA BLA BLA BLA BLA BLA BLA BLA BLA BLA BLA BLA BLA BLA BLA BLA BLA BLA BLA BLA 
BLA BLA BLA BLA BLA BLA BLA BLA BLA BLA BLA BLA BLA BLA BLA BLA BLA BLA BLA BLA 
BLA BLA BLA BLA BLA BLA BLA BLA BLA BLA BLA BLA BLA BLA BLA BLA BLA BLA BLA BLA 
BLA BLA BLA BLA BLA BLA BLA BLA BLA BLA BLA BLA BLA BLA BLA BLA BLA BLA BLA BLA 
BLA BLA BLA BLA BLA BLA BLA BLA BLA BLA BLA BLA BLA BLA BLA BLA BLA BLA BLA BLA 
BLA BLA BLA BLA BLA BLA BLA BLA BLA BLA BLA BLA BLA BLA BLA BLA BLA BLA BLA BLA 
BLA BLA BLA BLA BLA BLA BLA BLA BLA BLA BLA BLA BLA BLA BLA BLA BLA BLA BLA BLA 
BLA BLA BLA BLA BLA BLA BLA BLA BLA BLA BLA BLA BLA BLA BLA BLA BLA BLA BLA BLA 
BLA BLA BLA BLA BLA BLA BLA BLA BLA BLA BLA BLA BLA BLA BLA BLA BLA BLA BLA BLA 
BLA BLA BLA BLA BLA BLA BLA BLA BLA BLA BLA BLA BLA BLA BLA BLA BLA BLA BLA BLA 
BLA BLA BLA BLA BLA BLA BLA BLA BLA BLA BLA BLA BLA BLA BLA BLA BLA BLA BLA BLA 
BLA BLA BLA BLA BLA BLA BLA BLA BLA BLA BLA BLA BLA BLA BLA BLA BLA BLA BLA BLA 
BLA BLA BLA BLA BLA BLA BLA BLA BLA BLA BLA BLA BLA BLA BLA BLA BLA BLA BLA BLA 
BLA BLA BLA BLA BLA BLA BLA BLA BLA BLA BLA BLA BLA BLA BLA BLA BLA BLA BLA BLA 
BLA BLA BLA BLA BLA BLA BLA BLA BLA BLA BLA BLA BLA BLA BLA BLA BLA BLA BLA BLA 
BLA BLA BLA BLA BLA BLA BLA BLA BLA BLA BLA BLA BLA BLA BLA BLA BLA BLA BLA BLA 
BLA BLA BLA BLA BLA BLA BLA BLA BLA BLA BLA BLA BLA BLA BLA BLA BLA BLA BLA BLA 
BLA BLA BLA BLA BLA BLA BLA BLA BLA BLA BLA BLA BLA BLA BLA BLA BLA BLA BLA BLA 
BLA BLA BLA BLA BLA BLA BLA BLA BLA BLA BLA BLA BLA BLA BLA BLA BLA BLA BLA BLA 
BLA BLA BLA BLA BLA BLA BLA BLA BLA BLA BLA BLA BLA BLA BLA BLA BLA BLA BLA BLA 
BLA BLA BLA BLA BLA BLA BLA BLA BLA BLA BLA BLA BLA BLA BLA BLA BLA BLA BLA BLA 
BLA BLA BLA BLA BLA BLA BLA BLA BLA BLA BLA BLA BLA BLA BLA BLA BLA BLA BLA BLA 
BLA BLA BLA BLA BLA BLA BLA BLA BLA BLA BLA BLA BLA BLA BLA BLA BLA BLA BLA BLA 
BLA BLA BLA BLA BLA BLA BLA BLA BLA BLA BLA BLA BLA BLA BLA BLA BLA BLA BLA BLA 
BLA BLA BLA BLA BLA BLA BLA BLA BLA BLA BLA BLA BLA BLA BLA BLA BLA BLA BLA BLA 
BLA BLA BLA BLA BLA BLA BLA BLA BLA BLA BLA BLA BLA BLA BLA BLA BLA BLA BLA BLA 
BLA BLA BLA BLA BLA BLA BLA BLA BLA BLA BLA BLA BLA BLA BLA BLA BLA BLA BLA BLA 
BLA BLA BLA BLA BLA BLA BLA BLA BLA BLA BLA BLA BLA BLA BLA BLA BLA BLA BLA BLA 
BLA BLA BLA BLA BLA BLA BLA BLA BLA BLA BLA BLA BLA BLA BLA BLA BLA BLA BLA BLA 
BLA BLA BLA BLA BLA BLA BLA BLA BLA BLA BLA BLA BLA BLA BLA BLA BLA BLA BLA BLA 
BLA BLA BLA BLA BLA BLA BLA BLA BLA BLA BLA BLA BLA BLA BLA BLA BLA BLA BLA BLA 
BLA BLA BLA BLA BLA BLA BLA BLA BLA BLA BLA BLA BLA BLA BLA BLA BLA BLA BLA BLA 
BLA BLA BLA BLA BLA BLA BLA BLA BLA BLA BLA BLA BLA BLA BLA BLA BLA BLA BLA BLA 
BLA BLA BLA BLA BLA BLA BLA BLA BLA BLA BLA BLA BLA BLA BLA BLA BLA BLA BLA BLA 
BLA BLA BLA BLA BLA BLA BLA BLA BLA BLA BLA BLA BLA BLA BLA BLA BLA BLA BLA BLA 
BLA BLA BLA BLA BLA BLA BLA BLA BLA BLA BLA BLA BLA BLA BLA BLA BLA BLA BLA BLA 
BLA BLA BLA BLA BLA BLA BLA BLA BLA BLA BLA BLA BLA BLA BLA BLA BLA BLA BLA BLA 
BLA BLA BLA BLA BLA BLA BLA BLA BLA BLA BLA BLA BLA BLA BLA BLA BLA BLA BLA BLA 
BLA BLA BLA BLA BLA BLA BLA BLA BLA BLA BLA BLA BLA BLA BLA BLA BLA BLA BLA BLA 
BLA BLA BLA BLA BLA BLA BLA BLA BLA BLA BLA BLA BLA BLA BLA BLA BLA BLA BLA BLA 
BLA BLA BLA BLA BLA BLA BLA BLA BLA BLA BLA BLA BLA BLA BLA BLA BLA BLA BLA BLA 
BLA BLA BLA BLA BLA BLA BLA BLA BLA BLA BLA BLA BLA BLA BLA BLA BLA BLA BLA BLA 
BLA BLA BLA BLA BLA BLA BLA BLA BLA BLA BLA BLA BLA BLA BLA BLA BLA BLA BLA BLA 
BLA BLA BLA BLA BLA BLA BLA BLA BLA BLA BLA BLA BLA BLA BLA BLA BLA BLA BLA BLA 
BLA BLA BLA BLA BLA BLA BLA BLA BLA BLA BLA BLA BLA BLA BLA BLA BLA BLA BLA BLA 
BLA BLA BLA BLA BLA BLA BLA BLA BLA BLA BLA BLA BLA BLA BLA BLA BLA BLA BLA BLA 
BLA BLA BLA BLA BLA BLA BLA BLA BLA BLA BLA BLA BLA BLA BLA BLA BLA BLA BLA BLA 
BLA BLA BLA BLA BLA BLA BLA BLA BLA BLA BLA BLA BLA BLA BLA BLA BLA BLA BLA BLA 
BLA BLA BLA BLA BLA BLA BLA BLA BLA BLA BLA BLA BLA BLA BLA BLA BLA BLA BLA BLA 
BLA BLA BLA BLA BLA BLA BLA BLA BLA BLA BLA BLA BLA BLA BLA BLA BLA BLA BLA BLA 
BLA BLA BLA BLA BLA BLA BLA BLA BLA BLA BLA BLA BLA BLA BLA BLA BLA BLA BLA BLA 
BLA BLA BLA BLA BLA BLA BLA BLA BLA BLA BLA BLA BLA BLA BLA BLA BLA BLA BLA BLA 
BLA BLA BLA BLA BLA BLA BLA BLA BLA BLA BLA BLA BLA BLA BLA BLA BLA BLA BLA BLA 
BLA BLA BLA BLA BLA BLA BLA BLA BLA BLA BLA BLA BLA BLA BLA BLA BLA BLA BLA BLA 
BLA BLA BLA BLA BLA BLA BLA BLA BLA BLA BLA BLA BLA BLA BLA BLA BLA BLA BLA BLA 
BLA BLA BLA BLA BLA BLA BLA BLA BLA BLA BLA BLA BLA BLA BLA BLA BLA BLA BLA BLA 
BLA BLA BLA BLA BLA BLA BLA BLA BLA BLA BLA BLA BLA BLA BLA BLA BLA BLA BLA BLA 
BLA BLA BLA BLA BLA BLA BLA BLA BLA BLA BLA BLA BLA BLA BLA BLA BLA BLA BLA BLA 
BLA BLA BLA BLA BLA BLA BLA BLA BLA BLA BLA BLA BLA BLA BLA BLA BLA BLA BLA BLA 
BLA BLA BLA BLA BLA BLA BLA BLA BLA BLA BLA BLA BLA BLA BLA BLA BLA BLA BLA BLA 
BLA BLA BLA BLA BLA BLA BLA BLA BLA BLA BLA BLA BLA BLA BLA BLA BLA BLA BLA BLA 
BLA BLA BLA BLA BLA BLA BLA BLA BLA BLA BLA BLA BLA BLA BLA BLA BLA BLA BLA BLA 
BLA BLA BLA BLA BLA BLA BLA BLA BLA BLA BLA BLA BLA BLA BLA BLA BLA BLA BLA BLA 
BLA BLA BLA BLA BLA BLA BLA BLA BLA BLA BLA BLA BLA BLA BLA BLA BLA BLA BLA BLA 
BLA BLA BLA BLA BLA BLA BLA BLA BLA BLA BLA BLA BLA BLA BLA BLA BLA BLA BLA BLA 
BLA BLA BLA BLA BLA BLA BLA BLA BLA BLA BLA BLA BLA BLA BLA BLA BLA BLA BLA BLA 
BLA BLA BLA BLA BLA BLA BLA BLA BLA BLA BLA BLA BLA BLA BLA BLA BLA BLA BLA BLA 
BLA BLA BLA BLA BLA BLA BLA BLA BLA BLA BLA BLA BLA BLA BLA BLA BLA BLA BLA BLA 
BLA BLA BLA BLA BLA BLA BLA BLA BLA BLA BLA BLA BLA BLA BLA BLA BLA BLA BLA BLA 
BLA BLA BLA BLA BLA BLA BLA BLA BLA BLA BLA BLA BLA BLA BLA BLA BLA BLA BLA BLA 
BLA BLA BLA BLA BLA BLA BLA BLA BLA BLA BLA BLA BLA BLA BLA BLA BLA BLA BLA BLA 
BLA BLA BLA BLA BLA BLA BLA BLA BLA BLA BLA BLA BLA BLA BLA BLA BLA BLA BLA BLA 
BLA BLA BLA BLA BLA BLA BLA BLA BLA BLA BLA BLA BLA BLA BLA BLA BLA BLA BLA BLA 
BLA BLA BLA BLA BLA BLA BLA BLA BLA BLA BLA BLA BLA BLA BLA BLA BLA BLA BLA BLA 
BLA BLA BLA BLA BLA BLA BLA BLA BLA BLA BLA BLA BLA BLA BLA BLA BLA BLA BLA BLA 
BLA BLA BLA BLA BLA BLA BLA BLA BLA BLA BLA BLA BLA BLA BLA BLA BLA BLA BLA BLA 
BLA BLA BLA BLA BLA BLA BLA BLA BLA BLA BLA BLA BLA BLA BLA BLA BLA BLA BLA BLA 
BLA BLA BLA BLA BLA BLA BLA BLA BLA BLA BLA BLA BLA BLA BLA BLA BLA BLA BLA BLA 
BLA BLA BLA BLA BLA BLA BLA BLA BLA BLA BLA BLA BLA BLA BLA BLA BLA BLA BLA BLA 
BLA BLA BLA BLA BLA BLA BLA BLA BLA BLA BLA BLA BLA BLA BLA BLA BLA BLA BLA BLA 
BLA BLA BLA BLA BLA BLA BLA BLA BLA BLA BLA BLA BLA BLA BLA BLA BLA BLA BLA BLA 
BLA BLA BLA BLA BLA BLA BLA BLA BLA BLA BLA BLA BLA BLA BLA BLA BLA BLA BLA BLA 
BLA BLA BLA BLA BLA BLA BLA BLA BLA BLA BLA BLA BLA BLA BLA BLA BLA BLA BLA BLA 
BLA BLA BLA BLA BLA BLA BLA BLA BLA BLA BLA BLA BLA BLA BLA BLA BLA BLA BLA BLA 
BLA BLA BLA BLA BLA BLA BLA BLA BLA BLA BLA BLA BLA BLA BLA BLA BLA BLA BLA BLA 
BLA BLA BLA BLA BLA BLA BLA BLA BLA BLA BLA BLA BLA BLA BLA BLA BLA BLA BLA BLA 
BLA BLA BLA BLA BLA BLA BLA BLA BLA BLA BLA BLA BLA BLA BLA BLA BLA BLA BLA BLA 
BLA BLA BLA BLA BLA BLA BLA BLA BLA BLA BLA BLA BLA BLA BLA BLA BLA BLA BLA BLA 
BLA BLA BLA BLA BLA BLA BLA BLA BLA BLA BLA BLA BLA BLA BLA BLA BLA BLA BLA BLA 
BLA BLA BLA BLA BLA BLA BLA BLA BLA BLA BLA BLA BLA BLA BLA BLA BLA BLA BLA BLA 
BLA BLA BLA BLA BLA BLA BLA BLA BLA BLA BLA BLA BLA BLA BLA BLA BLA BLA BLA BLA 
BLA BLA BLA BLA BLA BLA BLA BLA BLA BLA BLA BLA BLA BLA BLA BLA BLA BLA BLA BLA 
BLA BLA BLA BLA BLA BLA BLA BLA BLA BLA BLA BLA BLA BLA BLA BLA BLA BLA BLA BLA 
BLA BLA BLA BLA BLA BLA BLA BLA BLA BLA BLA BLA BLA BLA BLA BLA BLA BLA BLA BLA 
BLA BLA BLA BLA BLA BLA BLA BLA BLA BLA BLA BLA BLA BLA BLA BLA BLA BLA BLA BLA 
BLA BLA BLA BLA BLA BLA BLA BLA BLA BLA BLA BLA BLA BLA BLA BLA BLA BLA BLA BLA 
BLA BLA BLA BLA BLA BLA BLA BLA BLA BLA BLA BLA BLA BLA BLA BLA BLA BLA BLA BLA 
BLA BLA BLA BLA BLA BLA BLA BLA BLA BLA BLA BLA BLA BLA BLA BLA BLA BLA BLA BLA 
BLA BLA BLA BLA BLA BLA BLA BLA BLA BLA BLA BLA BLA BLA BLA BLA BLA BLA BLA BLA 
BLA BLA BLA BLA BLA BLA BLA BLA BLA BLA BLA BLA BLA BLA BLA BLA BLA BLA BLA BLA 
BLA BLA BLA BLA BLA BLA BLA BLA BLA BLA BLA BLA BLA BLA BLA BLA BLA BLA BLA BLA 
BLA BLA BLA BLA BLA BLA BLA BLA BLA BLA BLA BLA BLA BLA BLA BLA BLA BLA BLA BLA 
BLA BLA BLA BLA BLA BLA BLA BLA BLA BLA BLA BLA BLA BLA BLA BLA BLA BLA BLA BLA 
BLA BLA BLA BLA BLA BLA BLA BLA BLA BLA BLA BLA BLA BLA BLA BLA BLA BLA BLA BLA 
BLA BLA BLA BLA BLA BLA BLA BLA BLA BLA BLA BLA BLA BLA BLA BLA BLA BLA BLA BLA 
BLA BLA BLA BLA BLA BLA BLA BLA BLA BLA BLA BLA BLA BLA BLA BLA BLA BLA BLA BLA 
BLA BLA BLA BLA BLA BLA BLA BLA BLA BLA BLA BLA BLA BLA BLA BLA BLA BLA BLA BLA 
BLA BLA BLA BLA BLA BLA BLA BLA BLA BLA BLA BLA BLA BLA BLA BLA BLA BLA BLA BLA 
BLA BLA BLA BLA BLA BLA BLA BLA BLA BLA BLA BLA BLA BLA BLA BLA BLA BLA BLA BLA 
BLA BLA BLA BLA BLA BLA BLA BLA BLA BLA BLA BLA BLA BLA BLA BLA BLA BLA BLA BLA 
BLA BLA BLA BLA BLA BLA BLA BLA BLA BLA BLA BLA BLA BLA BLA BLA BLA BLA BLA BLA 
BLA BLA BLA BLA BLA BLA BLA BLA BLA BLA BLA BLA BLA BLA BLA BLA BLA BLA BLA BLA 
BLA BLA BLA BLA BLA BLA BLA BLA BLA BLA BLA BLA BLA BLA BLA BLA BLA BLA BLA BLA 
BLA BLA BLA BLA BLA BLA BLA BLA BLA BLA BLA BLA BLA BLA BLA BLA BLA BLA BLA BLA 
BLA BLA BLA BLA BLA BLA BLA BLA BLA BLA BLA BLA BLA BLA BLA BLA BLA BLA BLA BLA 
BLA BLA BLA BLA BLA BLA BLA BLA BLA BLA BLA BLA BLA BLA BLA BLA BLA BLA BLA BLA 
BLA BLA BLA BLA BLA BLA BLA BLA BLA BLA BLA BLA BLA BLA BLA BLA BLA BLA BLA BLA 
BLA BLA BLA BLA BLA BLA BLA BLA BLA BLA BLA BLA BLA BLA BLA BLA BLA BLA BLA BLA 
BLA BLA BLA BLA BLA BLA BLA BLA BLA BLA BLA BLA BLA BLA BLA BLA BLA BLA BLA BLA 
BLA BLA BLA BLA BLA BLA BLA BLA BLA BLA BLA BLA BLA BLA BLA BLA BLA BLA BLA BLA 
BLA BLA BLA BLA BLA BLA BLA BLA BLA BLA BLA BLA BLA BLA BLA BLA BLA BLA BLA BLA 
BLA BLA BLA BLA BLA BLA BLA BLA BLA BLA BLA BLA BLA BLA BLA BLA BLA BLA BLA BLA 
BLA BLA BLA BLA BLA BLA BLA BLA BLA BLA BLA BLA BLA BLA BLA BLA BLA BLA BLA BLA 
BLA BLA BLA BLA BLA BLA BLA BLA BLA BLA BLA BLA BLA BLA BLA BLA BLA BLA BLA BLA 
BLA BLA BLA BLA BLA BLA BLA BLA BLA BLA BLA BLA BLA BLA BLA BLA BLA BLA BLA BLA 
BLA BLA BLA BLA BLA BLA BLA BLA BLA BLA BLA BLA BLA BLA BLA BLA BLA BLA BLA BLA 
BLA BLA BLA BLA BLA BLA BLA BLA BLA BLA BLA BLA BLA BLA BLA BLA BLA BLA BLA BLA 
BLA BLA BLA BLA BLA BLA BLA BLA BLA BLA BLA BLA BLA BLA BLA BLA BLA BLA BLA BLA 
BLA BLA BLA BLA BLA BLA BLA BLA BLA BLA BLA BLA BLA BLA BLA BLA BLA BLA BLA BLA 
BLA BLA BLA BLA BLA BLA BLA BLA BLA BLA BLA BLA BLA BLA BLA BLA BLA BLA BLA BLA 
BLA BLA BLA BLA BLA BLA BLA BLA BLA BLA BLA BLA BLA BLA BLA BLA BLA BLA BLA BLA 
BLA BLA BLA BLA BLA BLA BLA BLA BLA BLA BLA BLA BLA BLA BLA BLA BLA BLA BLA BLA 
BLA BLA BLA BLA BLA BLA BLA BLA BLA BLA BLA BLA BLA BLA BLA BLA BLA BLA BLA BLA 
BLA BLA BLA BLA BLA BLA BLA BLA BLA BLA BLA BLA BLA BLA BLA BLA BLA BLA BLA BLA 
BLA BLA BLA BLA BLA BLA BLA BLA BLA BLA BLA BLA BLA BLA BLA BLA BLA BLA BLA BLA 
BLA BLA BLA BLA BLA BLA BLA BLA BLA BLA BLA BLA BLA BLA BLA BLA BLA BLA BLA BLA 
BLA BLA BLA BLA BLA BLA BLA BLA BLA BLA BLA BLA BLA BLA BLA BLA BLA BLA BLA BLA 
BLA BLA BLA BLA BLA BLA BLA BLA BLA BLA BLA BLA BLA BLA BLA BLA BLA BLA BLA BLA 
BLA BLA BLA BLA BLA BLA BLA BLA BLA BLA BLA BLA BLA BLA BLA BLA BLA BLA BLA BLA 
BLA BLA BLA BLA BLA BLA BLA BLA BLA BLA BLA BLA BLA BLA BLA BLA BLA BLA BLA BLA 
BLA BLA BLA BLA BLA BLA BLA BLA BLA BLA BLA BLA BLA BLA BLA BLA BLA BLA BLA BLA 
BLA BLA BLA BLA BLA BLA BLA BLA BLA BLA BLA BLA BLA BLA BLA BLA BLA BLA BLA BLA 
BLA BLA BLA BLA BLA BLA BLA BLA BLA BLA BLA BLA BLA BLA BLA BLA BLA BLA BLA BLA 
BLA BLA BLA BLA BLA BLA BLA BLA BLA BLA BLA BLA BLA BLA BLA BLA BLA BLA BLA BLA 
BLA BLA BLA BLA BLA BLA BLA BLA BLA BLA BLA BLA BLA BLA BLA BLA BLA BLA BLA BLA 
BLA BLA BLA BLA BLA BLA BLA BLA BLA BLA BLA BLA BLA BLA BLA BLA BLA BLA BLA BLA 
BLA BLA BLA BLA BLA BLA BLA BLA BLA BLA BLA BLA BLA BLA BLA BLA BLA BLA BLA BLA 
BLA BLA BLA BLA BLA BLA BLA BLA BLA BLA BLA BLA BLA BLA BLA BLA BLA BLA BLA BLA 
BLA BLA BLA BLA BLA BLA BLA BLA BLA BLA BLA BLA BLA BLA BLA BLA BLA BLA BLA BLA 
BLA BLA BLA BLA BLA BLA BLA BLA BLA BLA BLA BLA BLA BLA BLA BLA BLA BLA BLA BLA 
BLA BLA BLA BLA BLA BLA BLA BLA BLA BLA BLA BLA BLA BLA BLA BLA BLA BLA BLA BLA 
BLA BLA BLA BLA BLA BLA BLA BLA BLA BLA BLA BLA BLA BLA BLA BLA BLA BLA BLA BLA 
BLA BLA BLA BLA BLA BLA BLA BLA BLA BLA BLA BLA BLA BLA BLA BLA BLA BLA BLA BLA 
BLA BLA BLA BLA BLA BLA BLA BLA BLA BLA BLA BLA BLA BLA BLA BLA BLA BLA BLA BLA 
BLA BLA BLA BLA BLA BLA BLA BLA BLA BLA BLA BLA BLA BLA BLA BLA BLA BLA BLA BLA 
BLA BLA BLA BLA BLA BLA BLA BLA BLA BLA BLA BLA BLA BLA BLA BLA BLA BLA BLA BLA 
BLA BLA BLA BLA BLA BLA BLA BLA BLA BLA BLA BLA BLA BLA BLA BLA BLA BLA BLA BLA 
BLA BLA BLA BLA BLA BLA BLA BLA BLA BLA BLA BLA BLA BLA BLA BLA BLA BLA BLA BLA 
BLA BLA BLA BLA BLA BLA BLA BLA BLA BLA BLA BLA BLA BLA BLA BLA BLA BLA BLA BLA 
BLA BLA BLA BLA BLA BLA BLA BLA BLA BLA BLA BLA BLA BLA BLA BLA BLA BLA BLA BLA 
BLA BLA BLA BLA BLA BLA BLA BLA BLA BLA BLA BLA BLA BLA BLA BLA BLA BLA BLA BLA 
BLA BLA BLA BLA BLA BLA BLA BLA BLA BLA BLA BLA BLA BLA BLA BLA BLA BLA BLA BLA 
BLA BLA BLA BLA BLA BLA BLA BLA BLA BLA BLA BLA BLA BLA BLA BLA BLA BLA BLA BLA 
BLA BLA BLA BLA BLA BLA BLA BLA BLA BLA BLA BLA BLA BLA BLA BLA BLA BLA BLA BLA 
BLA BLA BLA BLA BLA BLA BLA BLA BLA BLA BLA BLA BLA BLA BLA BLA BLA BLA BLA BLA 
BLA BLA BLA BLA BLA BLA BLA BLA BLA BLA BLA BLA BLA BLA BLA BLA BLA BLA BLA BLA 
BLA BLA BLA BLA BLA BLA BLA BLA BLA BLA BLA BLA BLA BLA BLA BLA BLA BLA BLA BLA 
BLA BLA BLA BLA BLA BLA BLA BLA BLA BLA BLA BLA BLA BLA BLA BLA BLA BLA BLA BLA 
BLA BLA BLA BLA BLA BLA BLA BLA BLA BLA BLA BLA BLA BLA BLA BLA BLA BLA BLA BLA 
BLA BLA BLA BLA BLA BLA BLA BLA BLA BLA BLA BLA BLA BLA BLA BLA BLA BLA BLA BLA 
BLA BLA BLA BLA BLA BLA BLA BLA BLA BLA BLA BLA BLA BLA BLA BLA BLA BLA BLA BLA 
BLA BLA BLA BLA BLA BLA BLA BLA BLA BLA BLA BLA BLA BLA BLA BLA BLA BLA BLA BLA 
BLA BLA BLA BLA BLA BLA BLA BLA BLA BLA BLA BLA BLA BLA BLA BLA BLA BLA BLA BLA 
BLA BLA BLA BLA BLA BLA BLA BLA BLA BLA BLA BLA BLA BLA BLA BLA BLA BLA BLA BLA 
%FLAG JOIN_ARRAY
%FORMAT(10I8)
       0       0       0       0       0       0       0       0       0       0
       0       0       0       0       0       0       0       0       0       0
       0       0       0       0       0       0       0       0       0       0
       0       0       0       0       0       0       0       0       0       0
       0       0       0       0       0       0       0       0       0       0
       0       0       0       0       0       0       0       0       0       0
       0       0       0       0       0       0       0       0       0       0
       0       0       0       0       0       0       0       0       0       0
       0       0       0       0       0       0       0       0       0       0
       0       0       0       0       0       0       0       0       0       0
       0       0       0       0       0       0       0       0       0       0
       0       0       0       0       0       0       0       0       0       0
       0       0       0       0       0       0       0       0       0       0
       0       0       0       0       0       0       0       0       0       0
       0       0       0       0       0       0       0       0       0       0
       0       0       0       0       0       0       0       0       0       0
       0       0       0       0       0       0       0       0       0       0
       0       0       0       0       0       0       0       0       0       0
       0       0       0       0       0       0       0       0       0       0
       0       0       0       0       0       0       0       0       0       0
       0       0       0       0       0       0       0       0       0       0
       0       0       0       0       0       0       0       0       0       0
       0       0       0       0       0       0       0       0       0       0
       0       0       0       0       0       0       0       0       0       0
       0       0       0       0       0       0       0       0       0       0
       0       0       0       0       0       0       0       0       0       0
       0       0       0       0       0       0       0       0       0       0
       0       0       0       0       0       0       0       0       0       0
       0       0       0       0       0       0       0       0       0       0
       0       0       0       0       0       0       0       0       0       0
       0       0       0       0       0       0       0       0       0       0
       0       0       0       0       0       0       0       0       0       0
       0       0       0       0       0       0       0       0       0       0
       0       0       0       0       0       0       0       0       0       0
       0       0       0       0       0       0       0       0       0       0
       0       0       0       0       0       0       0       0       0       0
       0       0       0       0       0       0       0       0       0       0
       0       0       0       0       0       0       0       0       0       0
       0       0       0       0       0       0       0       0       0       0
       0       0       0       0       0       0       0       0       0       0
       0       0       0       0       0       0       0       0       0       0
       0       0       0       0       0       0       0       0       0       0
       0       0       0       0       0       0       0       0       0       0
       0       0       0       0       0       0       0       0       0       0
       0       0       0       0       0       0       0       0       0       0
       0       0       0       0       0       0       0       0       0       0
       0       0       0       0       0       0       0       0       0       0
       0       0       0       0       0       0       0       0       0       0
       0       0       0       0       0       0       0       0       0       0
       0       0       0       0       0       0       0       0       0       0
       0       0       0       0       0       0       0       0       0       0
       0       0       0       0       0       0       0       0       0       0
       0       0       0       0       0       0       0       0       0       0
       0       0       0       0       0       0       0       0       0       0
       0       0       0       0       0       0       0       0       0       0
       0       0       0       0       0       0       0       0       0       0
       0       0       0       0       0       0       0       0       0       0
       0       0       0       0       0       0       0       0       0       0
       0       0       0       0       0       0       0       0       0       0
       0       0       0       0       0       0       0       0       0       0
       0       0       0       0       0       0       0       0       0       0
       0       0       0       0       0       0       0       0       0       0
       0       0       0       0       0       0       0       0       0       0
       0       0       0       0       0       0       0       0       0       0
       0       0       0       0       0       0       0       0       0       0
       0       0       0       0       0       0       0       0       0       0
       0       0       0       0       0       0       0       0       0       0
       0       0       0       0       0       0       0       0       0       0
       0       0       0       0       0       0       0       0       0       0
       0       0       0       0       0       0       0       0       0       0
       0       0       0       0       0       0       0       0       0       0
       0       0       0       0       0       0       0       0       0       0
       0       0       0       0       0       0       0       0       0       0
       0       0       0       0       0       0       0       0       0       0
       0       0       0       0       0       0       0       0       0       0
       0       0       0       0       0       0       0       0       0       0
       0       0       0       0       0       0       0       0       0       0
       0       0       0       0       0       0       0       0       0       0
       0       0       0       0       0       0       0       0       0       0
       0       0       0       0       0       0       0       0       0       0
       0       0       0       0       0       0       0       0       0       0
       0       0       0       0       0       0       0       0       0       0
       0       0       0       0       0       0       0       0       0       0
       0       0       0       0       0       0       0       0       0       0
       0       0       0       0       0       0       0       0       0       0
       0       0       0       0       0       0       0       0       0       0
       0       0       0       0       0       0       0       0       0       0
       0       0       0       0       0       0       0       0       0       0
       0       0       0       0       0       0       0       0       0       0
       0       0       0       0       0       0       0       0       0       0
       0       0       0       0       0       0       0       0       0       0
       0       0       0       0       0       0       0       0       0       0
       0       0       0       0       0       0       0       0       0       0
       0       0       0       0       0       0       0       0       0       0
       0       0       0       0       0       0       0       0       0       0
       0       0       0       0       0       0       0       0       0       0
       0       0       0       0       0       0       0       0       0       0
       0       0       0       0       0       0       0       0       0       0
       0       0       0       0       0       0       0       0       0       0
       0       0       0       0       0       0       0       0       0       0
       0       0       0       0       0       0       0       0       0       0
       0       0       0       0       0       0       0       0       0       0
       0       0       0       0       0       0       0       0       0       0
       0       0       0       0       0       0       0       0       0       0
       0       0       0       0       0       0       0       0       0       0
       0       0       0       0       0       0       0       0       0       0
       0       0       0       0       0       0       0       0       0       0
       0       0       0       0       0       0       0       0       0       0
       0       0       0       0       0       0       0       0       0       0
       0       0       0       0       0       0       0       0       0       0
       0       0       0       0       0       0       0       0       0       0
       0       0       0       0       0       0       0       0       0       0
       0       0       0       0       0       0       0       0       0       0
       0       0       0       0       0       0       0       0       0       0
       0       0       0       0       0       0       0       0       0       0
       0       0       0       0       0       0       0       0       0       0
       0       0       0       0       0       0       0       0       0       0
       0       0       0       0       0       0       0       0       0       0
       0       0       0       0       0       0       0       0       0       0
       0       0       0       0       0       0       0       0       0       0
       0       0       0       0       0       0       0       0       0       0
       0       0       0       0       0       0       0       0       0       0
       0       0       0       0       0       0       0       0       0       0
       0       0       0       0       0       0       0       0       0       0
       0       0       0       0       0       0       0       0       0       0
       0       0       0       0       0       0       0       0       0       0
       0       0       0       0       0       0       0       0       0       0
       0       0       0       0       0       0       0       0       0       0
       0       0       0       0       0       0       0       0       0       0
       0       0       0       0       0       0       0       0       0       0
       0       0       0       0       0       0       0       0       0       0
       0       0       0       0       0       0       0       0       0       0
       0       0       0       0       0       0       0       0       0       0
       0       0       0       0       0       0       0       0       0       0
       0       0       0       0       0       0       0       0       0       0
       0       0       0       0       0       0       0       0       0       0
       0       0       0       0       0       0       0       0       0       0
       0       0       0       0       0       0       0       0       0       0
       0       0       0       0       0       0       0       0       0       0
       0       0       0       0       0       0       0       0       0       0
       0       0       0       0       0       0       0       0       0       0
       0       0       0       0       0       0       0       0       0       0
       0       0       0       0       0       0       0       0       0       0
       0       0       0       0       0       0       0       0       0       0
       0       0       0       0       0       0       0       0       0       0
       0       0       0       0       0       0       0       0       0       0
       0       0       0       0       0       0       0       0       0       0
       0       0       0       0       0       0       0       0       0       0
       0       0       0       0       0       0       0       0       0       0
       0       0       0       0       0       0       0       0       0       0
       0       0       0       0       0       0       0       0       0       0
       0       0       0       0       0       0       0       0       0       0
       0       0       0       0       0       0       0       0       0       0
       0       0       0       0       0       0       0       0       0       0
       0       0       0       0       0       0       0       0       0       0
       0       0       0       0       0       0       0       0       0       0
       0       0       0       0       0       0       0       0       0       0
       0       0       0       0       0       0       0       0       0       0
       0       0       0       0       0       0       0       0       0       0
       0       0       0       0       0       0       0       0       0       0
       0       0       0       0       0       0       0       0       0       0
       0       0       0       0       0       0       0       0       0       0
       0       0       0       0       0       0       0       0       0       0
       0       0       0       0       0       0       0       0       0       0
       0       0       0       0       0       0       0       0       0       0
       0       0       0       0       0       0       0       0       0       0
       0       0       0       0       0       0       0       0       0       0
       0       0       0       0       0       0       0       0       0       0
       0       0       0       0       0       0       0       0       0       0
       0       0       0       0       0       0       0       0       0       0
       0       0       0       0       0       0       0       0       0       0
       0       0       0       0       0       0       0       0       0       0
       0       0       0       0       0       0       0       0       0       0
       0       0       0       0       0       0       0       0       0       0
       0       0       0       0       0       0       0       0       0       0
       0       0       0       0       0       0       0       0       0       0
       0       0       0       0       0       0       0       0       0       0
       0       0       0       0       0       0       0       0       0       0
       0       0       0       0       0       0       0       0       0       0
       0       0       0       0       0       0       0       0       0       0
       0       0       0       0       0       0       0       0       0       0
       0       0       0       0       0       0       0       0       0       0
       0       0       0       0       0       0       0       0       0       0
       0       0       0       0       0       0       0       0       0       0
       0       0       0       0       0       0       0       0       0       0
       0       0       0       0       0       0       0       0       0       0
       0       0       0       0       0       0       0       0       0       0
       0       0       0       0       0       0       0       0       0       0
       0       0       0       0       0       0       0       0       0       0
       0       0       0       0       0       0       0       0       0       0
       0       0       0       0       0       0       0       0       0       0
       0       0       0       0       0       0       0       0       0       0
       0       0       0       0       0       0       0       0       0       0
       0       0       0       0       0       0       0       0       0       0
       0       0       0       0       0       0       0       0       0       0
       0       0       0       0       0       0       0       0       0       0
       0       0       0       0       0       0       0       0       0       0
       0       0       0       0       0       0       0       0       0       0
       0       0       0       0       0       0       0       0       0       0
       0       0       0       0       0       0       0       0       0       0
       0       0       0       0       0       0       0       0       0       0
       0       0       0       0       0       0       0       0       0       0
       0       0       0       0       0       0       0       0       0       0
       0       0       0       0       0       0       0       0       0       0
       0       0       0       0       0       0       0       0       0       0
       0       0       0       0       0       0       0       0       0       0
       0       0       0       0       0       0       0       0       0       0
       0       0       0       0       0       0       0       0       0       0
       0       0       0       0       0       0       0       0       0       0
       0       0       0       0       0       0       0       0       0       0
       0       0       0       0       0       0       0       0       0       0
       0       0       0       0       0       0       0       0       0       0
       0       0       0       0       0       0       0       0       0       0
       0       0       0       0       0       0       0       0       0       0
       0       0       0       0       0       0       0       0       0       0
       0       0       0       0       0       0       0       0       0       0
       0       0       0       0       0       0       0       0       0       0
       0       0       0       0       0       0       0       0       0       0
       0       0       0       0       0       0       0       0       0       0
       0       0       0       0       0       0       0       0       0       0
       0       0       0       0       0       0       0       0       0       0
       0       0       0       0       0       0       0       0       0       0
       0       0       0       0       0       0       0       0       0       0
       0       0       0       0       0       0       0       0       0       0
       0       0       0       0       0       0       0       0       0       0
       0       0       0       0       0       0       0       0       0       0
       0       0       0       0       0       0       0       0       0       0
       0       0       0       0       0       0       0       0       0       0
       0       0       0       0       0       0       0       0       0       0
       0       0       0       0       0       0       0       0       0       0
       0       0       0       0       0       0       0       0       0       0
       0       0       0       0       0       0       0       0       0       0
       0       0       0       0       0       0       0       0       0       0
       0       0       0       0       0       0       0       0       0       0
       0       0       0       0       0       0       0       0       0       0
       0       0       0       0       0       0       0       0       0       0
       0       0       0       0       0       0       0       0       0       0
       0       0       0       0       0       0       0       0       0       0
       0       0       0       0       0       0       0       0       0       0
       0       0       0       0       0       0       0       0       0       0
       0       0       0       0       0       0       0       0       0       0
       0       0       0       0       0       0       0       0       0       0
       0       0       0       0       0       0       0       0       0       0
       0       0       0       0       0       0       0       0       0       0
       0       0       0       0       0       0       0       0       0       0
       0       0       0       0       0       0       0       0       0       0
       0       0       0       0       0       0       0       0       0       0
       0       0       0       0       0       0       0       0       0       0
       0       0       0       0       0       0       0       0       0       0
       0       0       0       0       0       0       0       0       0       0
       0       0       0       0       0       0       0       0       0       0
       0       0       0       0       0       0       0       0       0       0
       0       0       0       0       0       0       0       0       0       0
       0       0       0       0       0       0       0       0       0       0
       0       0       0       0       0       0       0       0       0       0
       0       0       0       0       0       0       0       0       0       0
       0       0       0       0       0       0       0       0       0       0
       0       0       0       0       0       0       0       0       0       0
       0       0       0       0       0       0       0       0       0       0
       0       0       0       0       0       0       0       0       0       0
       0       0       0       0       0       0       0       0       0       0
       0       0       0       0       0       0       0       0       0       0
       0       0       0       0       0       0       0       0       0       0
       0       0       0       0       0       0       0       0       0       0
       0       0       0       0       0       0       0       0       0       0
       0       0       0       0       0       0       0       0       0       0
       0       0       0       0       0       0       0       0       0       0
       0       0       0       0       0       0       0       0       0       0
       0       0       0       0       0       0       0       0       0       0
       0       0       0       0       0       0       0       0       0       0
       0       0       0       0       0       0       0       0       0       0
       0       0       0       0       0       0       0       0       0       0
       0       0       0       0       0       0       0       0       0       0
       0       0       0       0       0       0       0       0       0       0
       0       0       0       0       0       0       0       0       0       0
       0       0       0       0       0       0       0       0       0       0
       0       0       0       0       0       0       0       0       0       0
       0       0       0       0       0       0       0       0       0       0
       0       0       0       0       0       0       0       0       0       0
       0       0       0       0       0       0       0       0       0       0
       0       0       0       0       0       0       0       0       0       0
       0       0       0       0       0       0       0       0       0       0
       0       0       0       0       0       0       0       0       0       0
       0       0       0       0       0       0       0       0       0       0
       0       0       0       0       0       0       0       0       0       0
       0       0       0       0       0       0       0       0       0       0
       0       0       0       0       0       0       0       0       0       0
       0       0       0       0       0       0       0       0       0       0
       0       0       0       0       0       0       0       0       0       0
       0       0       0       0       0       0       0       0       0       0
       0       0       0       0       0       0       0       0       0       0
       0       0       0       0       0       0       0       0       0       0
       0       0       0       0       0       0       0       0       0       0
       0       0       0       0       0       0       0       0       0       0
       0       0       0       0       0       0       0       0       0       0
       0       0       0       0       0       0       0       0       0       0
       0       0       0       0       0       0       0       0       0       0
       0       0       0       0       0       0       0       0       0       0
       0       0       0       0       0       0       0       0       0       0
       0       0       0       0       0       0       0       0       0       0
       0       0       0       0       0       0       0       0       0       0
       0       0       0       0       0       0       0       0       0       0
       0       0       0       0       0       0       0       0       0       0
       0       0       0       0       0       0       0       0       0       0
       0       0       0       0       0       0       0       0       0       0
       0       0       0       0       0       0       0       0       0       0
       0       0       0       0       0       0       0       0       0       0
       0       0       0       0       0       0       0       0       0       0
       0       0       0       0       0       0       0       0       0       0
       0       0       0       0       0       0       0       0       0       0
       0       0       0       0       0       0       0       0       0       0
       0       0       0       0       0       0       0       0       0       0
       0       0       0       0       0       0       0       0       0       0
       0       0       0       0       0       0       0       0       0       0
       0       0       0       0       0       0       0       0       0       0
       0       0       0       0       0       0       0       0       0       0
       0       0       0       0       0       0       0       0       0       0
       0       0       0       0       0       0       0       0       0       0
       0       0       0       0       0       0       0       0       0       0
       0       0       0       0       0       0       0       0       0       0
       0       0       0       0       0       0       0       0       0       0
       0       0       0       0       0       0       0       0       0       0
       0       0       0       0       0       0       0       0       0       0
       0       0       0       0       0       0       0       0       0       0
       0       0       0       0       0       0       0       0       0       0
       0       0       0       0       0       0       0       0       0       0
       0       0       0       0       0       0       0       0       0       0
       0       0       0       0       0       0       0       0       0       0
       0       0       0       0       0       0       0       0       0       0
       0       0       0       0       0       0       0       0       0       0
       0       0       0       0       0       0       0       0       0       0
       0       0       0       0       0       0       0       0       0       0
       0       0       0       0       0       0       0       0       0       0
       0       0       0       0       0       0       0       0       0       0
       0       0       0       0       0       0       0       0       0       0
       0       0       0       0       0       0       0       0       0       0
       0       0       0       0       0       0       0       0       0       0
       0       0       0       0       0       0       0       0       0       0
       0       0       0       0       0       0       0       0       0       0
       0       0       0       0       0       0       0       0       0       0
       0       0       0       0       0       0       0       0       0       0
       0       0       0       0       0       0       0       0       0       0
       0       0       0       0       0       0       0       0       0       0
       0       0       0       0       0       0       0       0       0       0
       0       0       0       0       0       0       0       0       0       0
       0       0       0       0       0       0       0       0       0       0
       0       0       0       0       0       0       0       0       0       0
       0       0       0       0       0       0       0       0       0       0
       0       0       0       0       0       0       0       0       0       0
       0       0       0       0       0       0       0       0       0       0
       0       0       0       0       0       0       0       0       0       0
       0       0       0       0       0       0       0       0       0       0
       0       0       0       0       0       0       0       0       0       0
       0       0       0       0       0       0       0       0       0       0
       0       0       0       0       0       0       0       0       0       0
       0       0       0       0       0       0       0       0       0       0
       0       0       0       0       0       0       0       0       0       0
       0       0       0       0       0       0       0       0       0       0
       0       0       0       0       0       0       0       0       0       0
       0       0       0       0       0       0       0       0       0       0
       0       0       0       0       0       0       0       0       0       0
       0       0       0       0       0       0       0       0       0       0
       0       0       0       0       0       0       0       0       0       0
       0       0       0       0       0       0       0       0       0       0
       0       0       0       0       0       0       0       0       0       0
       0       0       0       0       0       0       0       0       0       0
       0       0       0       0       0       0       0       0       0       0
       0       0       0       0       0       0       0       0       0       0
       0       0       0       0       0       0       0       0       0       0
       0       0       0       0       0       0       0       0       0       0
       0       0       0       0       0       0       0       0       0       0
       0       0       0       0       0       0       0       0       0       0
       0       0       0       0       0       0       0       0       0       0
       0       0       0       0       0       0       0       0       0       0
       0       0       0       0       0       0       0       0       0       0
       0       0       0       0       0       0       0       0       0       0
       0       0       0       0       0       0       0       0       0       0
       0       0       0       0       0       0       0       0       0       0
       0       0       0       0       0       0       0       0       0       0
       0       0       0       0       0       0       0       0       0       0
       0       0       0       0       0       0       0       0       0       0
       0       0       0       0       0       0       0       0       0       0
       0       0       0       0       0       0       0       0       0       0
       0       0       0       0       0       0       0       0       0       0
       0       0       0       0       0       0       0       0       0       0
       0       0       0       0       0       0       0       0       0       0
       0       0       0       0       0       0       0       0       0       0
       0       0       0       0       0       0       0       0       0       0
       0       0       0       0       0       0       0       0       0       0
       0       0       0       0       0       0       0       0       0       0
       0       0       0       0       0       0       0       0       0       0
       0       0       0       0       0       0       0       0       0       0
       0       0       0       0       0       0       0       0       0       0
       0       0       0       0       0       0       0       0       0       0
       0       0       0       0       0       0       0       0       0       0
       0       0       0       0       0       0       0       0       0       0
       0       0       0       0       0       0       0       0       0       0
       0       0       0       0       0       0       0       0       0       0
       0       0       0       0       0       0       0       0       0       0
       0       0       0       0       0       0       0       0       0       0
       0       0       0       0       0       0       0       0       0       0
       0       0       0       0       0       0       0       0       0       0
       0       0       0       0       0       0       0       0       0       0
       0       0       0       0       0       0       0       0       0       0
       0       0       0       0       0       0       0       0       0       0
       0       0       0       0       0       0       0       0       0       0
       0       0       0       0       0       0       0       0       0       0
       0       0       0       0       0       0       0       0       0       0
       0       0       0       0       0       0       0       0       0       0
       0       0       0       0       0       0       0       0       0       0
       0       0       0       0       0       0       0       0       0       0
       0       0       0       0       0       0       0       0       0       0
       0       0       0       0       0       0       0       0       0       0
       0       0       0       0       0       0       0       0       0       0
       0       0       0       0       0       0       0       0       0       0
       0       0       0       0       0       0       0       0       0       0
       0       0       0       0       0       0       0       0       0       0
       0       0       0       0       0       0       0       0       0       0
       0       0       0       0       0       0       0       0       0       0
       0       0       0       0       0       0       0       0       0       0
       0       0       0       0       0       0       0       0       0       0
       0       0       0       0       0       0       0       0       0       0
       0       0       0       0       0       0       0       0       0       0
       0       0       0       0       0       0       0       0       0       0
       0       0       0       0       0       0       0       0       0       0
       0       0       0       0       0       0       0       0       0       0
       0       0       0       0       0       0       0       0       0       0
       0       0       0       0       0       0       0       0       0       0
       0       0       0       0       0       0       0       0       0       0
       0       0       0       0       0       0       0       0       0       0
       0       0       0       0       0       0       0       0       0       0
       0       0       0       0       0       0       0       0       0       0
       0       0       0       0       0       0       0       0       0       0
       0       0       0       0       0       0       0       0       0       0
       0       0       0       0       0       0       0       0       0       0
       0       0       0       0       0       0       0       0       0       0
       0       0       0       0       0       0       0       0       0       0
       0       0       0       0       0       0       0       0       0       0
       0       0       0       0       0       0       0       0       0       0
       0       0       0       0       0       0       0       0       0       0
       0       0       0       0       0       0       0       0       0       0
       0       0       0       0       0       0       0       0       0       0
       0       0       0       0       0       0       0       0       0       0
       0       0       0       0       0       0       0       0       0       0
       0       0       0       0       0       0       0       0       0       0
       0       0       0       0       0       0       0       0       0       0
       0       0       0       0       0       0       0       0       0       0
       0       0       0       0       0       0       0       0       0       0
       0       0       0       0       0       0       0       0       0       0
       0       0       0       0       0       0       0       0       0       0
       0       0       0       0       0       0       0       0       0       0
       0       0       0       0       0       0       0       0       0       0
       0       0       0       0       0       0       0       0       0       0
       0       0       0       0       0       0       0       0       0       0
       0       0       0       0       0       0       0       0       0       0
       0       0       0       0       0       0       0       0       0       0
       0       0       0       0       0       0       0       0       0       0
       0       0       0       0       0       0       0       0       0       0
       0       0       0       0       0       0       0       0       0       0
       0       0       0       0       0       0       0       0       0       0
       0       0       0       0       0       0       0       0       0       0
       0       0       0       0       0       0       0       0       0       0
       0       0       0       0       0       0       0       0       0       0
       0       0       0       0       0       0       0       0       0       0
       0       0       0       0       0       0       0       0       0       0
       0       0       0       0       0       0       0       0       0       0
       0       0       0       0       0       0       0       0       0       0
       0       0       0       0       0       0       0       0       0       0
       0       0       0       0       0       0       0       0       0       0
       0       0       0       0       0       0       0       0       0       0
       0       0       0       0       0       0       0       0       0       0
       0       0       0       0       0       0       0       0       0       0
       0       0       0       0       0       0       0       0       0       0
       0       0       0       0       0       0       0       0       0       0
       0       0       0       0       0       0       0       0       0       0
       0       0       0       0       0       0       0       0       0       0
       0       0       0       0       0       0       0       0       0       0
       0       0       0       0       0       0       0       0       0       0
       0       0       0       0       0       0       0       0       0       0
       0       0       0       0       0       0       0       0       0       0
       0       0       0       0       0       0       0       0       0       0
       0       0       0       0       0       0       0       0       0       0
       0       0       0       0       0       0       0       0       0       0
       0       0       0       0       0       0       0       0       0       0
       0       0       0       0       0       0       0       0       0       0
       0       0       0       0       0       0       0       0       0       0
       0       0       0       0       0       0       0       0       0       0
       0       0       0       0       0       0       0       0       0       0
       0       0       0       0       0       0       0       0       0       0
       0       0       0       0       0       0       0       0       0       0
       0       0       0       0       0       0       0       0       0       0
       0       0       0       0       0       0       0       0       0       0
       0       0       0       0       0       0       0       0       0       0
       0       0       0       0       0       0       0       0       0       0
       0       0       0       0       0       0       0       0       0       0
       0       0       0       0       0       0       0       0       0       0
       0       0       0       0       0       0       0       0       0       0
       0       0       0       0       0       0       0       0       0       0
       0       0       0       0       0       0       0       0       0       0
       0       0       0       0       0       0       0       0       0       0
       0       0       0       0       0       0       0       0       0       0
       0       0       0       0       0       0       0       0       0       0
       0       0       0       0       0       0       0       0       0       0
       0       0       0       0       0       0       0       0       0       0
       0       0       0       0       0       0       0       0       0       0
       0       0       0       0       0       0       0       0       0       0
       0       0       0       0       0       0       0       0       0       0
       0       0       0       0       0       0       0       0       0       0
       0       0       0       0       0       0       0       0       0       0
       0       0       0       0       0       0       0       0       0       0
       0       0       0       0       0       0       0       0       0       0
       0       0       0       0       0       0       0       0       0       0
       0       0       0       0       0       0       0       0       0       0
       0       0       0       0       0       0       0       0       0       0
       0       0       0       0       0       0       0       0       0       0
       0       0       0       0       0       0       0       0       0       0
       0       0       0       0       0       0       0       0       0       0
       0       0       0       0       0       0       0       0       0       0
       0       0       0       0       0       0       0       0       0       0
       0       0       0       0       0       0       0       0       0       0
       0       0       0       0       0       0       0       0       0       0
       0       0       0       0       0       0       0       0       0       0
       0       0       0       0       0       0       0       0       0       0
       0       0       0       0       0       0       0       0       0       0
       0       0       0       0       0       0       0       0       0       0
       0       0       0       0       0       0       0       0       0       0
       0       0       0       0       0       0       0       0       0       0
       0       0       0       0       0       0       0       0       0       0
       0       0       0       0       0       0       0       0       0       0
       0       0       0       0       0       0       0       0       0       0
       0       0       0       0       0       0       0       0       0       0
       0       0       0       0       0       0       0       0       0       0
       0       0       0       0       0       0       0       0       0       0
       0       0       0       0       0       0       0       0       0       0
       0       0       0       0       0       0       0       0       0       0
       0       0       0       0       0       0       0       0       0       0
       0       0       0       0       0       0       0       0       0       0
       0       0       0       0       0       0       0       0       0       0
       0       0       0       0       0       0       0       0       0       0
       0       0       0       0       0       0       0       0       0       0
       0       0       0       0       0       0       0       0       0       0
       0       0       0       0       0       0       0       0       0       0
       0       0       0       0       0       0       0       0       0       0
       0       0       0       0       0       0       0       0       0       0
       0       0       0       0       0       0       0       0       0       0
       0       0       0       0       0       0       0       0       0       0
       0       0       0       0       0       0       0       0       0       0
       0       0       0       0       0       0       0       0       0       0
       0       0       0       0       0       0       0       0       0       0
       0       0       0       0       0       0       0       0       0       0
       0       0       0       0       0       0       0       0       0       0
       0       0       0       0       0       0       0       0       0       0
       0       0       0       0       0       0       0       0       0       0
       0       0       0       0       0       0       0       0       0       0
       0       0       0       0       0       0       0       0       0       0
       0       0       0       0       0       0       0       0       0       0
       0       0       0       0       0       0       0       0       0       0
       0       0       0       0       0       0       0       0       0       0
       0       0       0       0       0       0       0       0       0       0
       0       0       0       0       0       0       0       0       0       0
       0       0       0       0       0       0       0       0       0       0
       0       0       0       0       0       0       0       0       0       0
       0       0       0       0       0       0       0       0       0       0
       0       0       0       0       0       0       0       0       0       0
       0       0       0       0       0       0       0       0       0       0
       0       0       0       0       0       0       0       0       0       0
       0       0       0       0       0       0       0       0       0       0
       0       0       0       0       0       0       0       0       0       0
       0       0       0       0       0       0       0       0       0       0
       0       0       0       0       0       0       0       0       0       0
       0       0       0       0       0       0       0       0       0       0
       0       0       0       0       0       0       0       0       0       0
       0       0       0       0       0       0       0       0       0       0
       0       0       0       0       0       0       0       0       0       0
       0       0       0       0       0       0       0       0       0       0
       0       0       0       0       0       0       0       0       0       0
       0       0       0       0       0       0       0       0       0       0
       0       0       0       0       0       0       0       0       0       0
       0       0       0       0       0       0       0       0       0       0
       0       0       0       0       0       0       0       0       0       0
       0       0       0       0       0       0       0       0       0       0
       0       0       0       0       0       0       0       0       0       0
       0       0       0       0       0       0       0       0       0       0
       0       0       0       0       0       0       0       0       0       0
       0       0       0       0       0       0       0       0       0       0
       0       0       0       0       0       0       0       0       0       0
       0       0       0       0       0       0       0       0       0       0
       0       0       0       0       0       0       0       0       0       0
       0       0       0       0       0       0       0       0       0       0
       0       0       0       0       0       0       0       0       0       0
       0       0       0       0       0       0       0       0       0       0
       0       0       0       0       0       0       0       0       0       0
       0       0       0       0       0       0       0       0       0       0
       0       0       0       0       0       0       0       0       0       0
       0       0       0       0       0       0       0       0       0       0
       0       0       0       0       0       0       0       0       0       0
       0       0       0       0       0       0       0       0       0       0
       0       0       0       0       0       0       0       0       0       0
       0       0       0       0       0       0       0       0       0       0
       0       0       0       0       0       0       0       0       0       0
       0       0       0       0       0       0       0       0       0       0
       0       0       0       0       0       0       0       0       0       0
       0       0       0       0       0       0       0       0       0       0
       0       0       0       0       0       0       0       0       0       0
       0       0       0       0       0       0       0       0       0       0
       0       0       0       0       0       0       0       0       0       0
       0       0       0       0       0       0       0       0       0       0
       0       0       0       0       0       0       0       0       0       0
       0       0       0       0       0       0       0       0       0       0
       0       0       0       0       0       0       0       0       0       0
       0       0       0       0       0       0       0       0       0       0
       0       0       0       0       0       0       0       0       0       0
       0       0       0       0       0       0       0       0       0       0
       0       0       0       0       0       0       0       0       0       0
       0       0       0       0       0       0       0       0       0       0
       0       0       0       0       0       0       0       0       0       0
       0       0       0       0       0       0       0       0       0       0
       0       0       0       0       0       0       0       0       0       0
       0       0       0       0       0       0       0       0       0       0
       0       0       0       0       0       0       0       0       0       0
       0       0       0       0       0       0       0       0       0       0
       0       0       0       0       0       0       0       0       0       0
       0       0       0       0       0       0       0       0       0       0
       0       0       0       0       0       0       0       0       0       0
       0       0       0       0       0       0       0       0       0       0
       0       0       0       0       0       0       0       0       0       0
       0       0       0       0       0       0       0       0       0       0
       0       0       0       0       0       0       0       0       0       0
       0       0       0       0       0       0       0       0       0       0
       0       0       0       0       0       0       0       0       0       0
       0       0       0       0       0       0       0       0       0       0
       0       0       0       0       0       0       0       0       0       0
       0       0       0       0       0       0       0       0       0       0
       0       0       0       0       0       0       0       0       0       0
       0       0       0       0       0       0       0       0       0       0
       0       0       0       0       0       0       0       0       0       0
       0       0       0       0       0       0       0       0       0       0
       0       0       0       0       0       0       0       0       0       0
       0       0       0       0       0       0       0       0       0       0
       0       0       0       0       0       0       0       0       0       0
       0       0       0       0       0       0       0       0       0       0
       0       0       0       0       0       0       0       0       0       0
       0       0       0       0       0       0       0       0       0       0
       0       0       0       0       0       0       0       0       0       0
       0       0       0       0       0       0       0       0       0       0
       0       0       0       0       0       0       0       0       0       0
       0       0       0       0       0       0       0       0       0       0
       0       0       0       0       0       0       0       0       0       0
       0       0       0       0       0       0       0       0       0       0
       0       0       0       0       0       0       0       0       0       0
       0       0       0       0       0       0       0       0       0       0
       0       0       0       0       0       0       0       0       0       0
       0       0       0       0       0       0       0       0       0       0
       0       0       0       0       0       0       0       0       0       0
       0       0       0       0       0       0       0       0       0       0
       0       0       0       0       0       0       0       0       0       0
       0       0       0       0       0       0       0       0       0       0
       0       0       0       0       0       0       0       0       0       0
       0       0       0       0       0       0       0       0       0       0
       0       0       0       0       0       0       0       0       0       0
       0       0       0       0       0       0       0       0       0       0
       0       0       0       0       0       0       0       0       0       0
       0       0       0       0       0       0       0       0       0       0
       0       0       0       0       0       0       0       0       0       0
       0       0       0       0       0       0       0       0       0       0
       0       0       0       0       0       0       0       0       0       0
       0       0       0       0       0       0       0       0       0       0
       0       0       0       0       0       0       0       0       0       0
       0       0       0       0       0       0       0       0       0       0
       0       0       0       0       0       0       0       0       0       0
       0       0       0       0       0       0       0       0       0       0
       0       0       0       0       0       0       0       0       0       0
       0       0       0       0       0       0       0       0       0       0
       0       0       0       0       0       0       0       0       0       0
       0       0       0       0       0       0       0       0       0       0
       0       0       0       0       0       0       0       0       0       0
       0       0       0       0       0       0       0       0       0       0
       0       0       0       0       0       0       0       0       0       0
       0       0       0       0       0       0       0       0       0       0
       0       0       0       0       0       0       0       0       0       0
       0       0       0       0       0       0       0       0       0       0
       0       0       0       0       0       0       0       0       0       0
       0       0       0       0       0       0       0       0       0       0
       0       0       0       0       0       0       0       0       0       0
       0       0       0       0       0       0       0       0       0       0
       0       0       0       0       0       0       0       0       0       0
       0       0       0       0       0       0       0       0       0       0
       0       0       0       0       0       0       0       0       0       0
       0       0       0       0       0       0       0       0       0       0
       0       0       0       0       0       0       0       0       0       0
       0       0       0       0       0       0       0       0       0       0
       0       0       0       0       0       0       0       0       0       0
       0       0       0       0       0       0       0       0       0       0
       0       0       0       0       0       0       0       0       0       0
       0       0       0       0       0       0       0       0       0       0
       0       0       0       0       0       0       0       0       0       0
       0       0       0       0       0       0       0       0       0       0
       0       0       0       0       0       0       0       0       0       0
       0       0       0       0       0       0       0       0       0       0
       0       0       0       0       0       0       0       0       0       0
       0       0       0       0       0       0       0       0       0       0
       0       0       0       0       0       0       0       0       0       0
       0       0       0       0       0       0       0       0       0       0
       0       0       0       0       0       0       0       0       0       0
       0       0       0       0       0       0       0       0       0       0
       0       0       0       0       0       0       0       0       0       0
       0       0       0       0       0       0       0       0       0       0
       0       0       0       0       0       0       0       0       0       0
       0       0       0       0       0       0       0       0       0       0
       0       0       0       0       0       0       0       0       0       0
       0       0       0       0       0       0       0       0       0       0
       0       0       0       0       0       0       0       0       0       0
       0       0       0       0       0       0       0       0       0       0
       0       0       0       0       0       0       0       0       0       0
       0       0       0       0       0       0       0       0       0       0
       0       0       0       0       0       0       0       0       0       0
       0       0       0       0       0       0       0       0       0       0
       0       0       0       0       0       0       0       0       0       0
       0       0       0       0       0       0       0       0       0       0
       0       0       0       0       0       0       0       0       0       0
       0       0       0       0       0       0       0       0       0       0
       0       0       0       0       0       0       0       0       0       0
       0       0       0       0       0       0       0       0       0       0
       0       0       0       0       0       0       0       0       0       0
       0       0       0       0       0       0       0       0       0       0
       0       0       0       0       0       0       0       0       0       0
       0       0       0       0       0       0       0       0       0       0
       0       0       0       0       0       0       0       0       0       0
       0       0       0       0       0       0       0       0       0       0
       0       0       0       0       0       0       0       0       0       0
       0       0       0       0       0       0       0       0       0       0
       0       0       0       0       0       0       0       0       0       0
       0       0       0       0       0       0       0       0       0       0
       0       0       0       0       0       0       0       0       0       0
       0       0       0       0       0       0       0       0       0       0
       0       0       0       0       0       0       0       0       0       0
       0       0       0       0       0       0       0       0       0       0
       0       0       0       0       0       0       0       0       0       0
       0       0       0       0       0       0       0       0       0       0
       0       0       0       0       0       0       0       0       0       0
       0       0       0       0       0       0       0       0       0       0
       0       0       0       0       0       0       0       0       0       0
       0       0       0       0       0       0       0       0       0       0
       0       0       0       0       0       0       0       0       0       0
       0       0       0       0       0       0       0       0       0       0
       0       0       0       0       0       0       0       0       0       0
       0       0       0       0       0       0       0       0       0       0
       0       0       0       0       0       0       0       0       0       0
       0       0       0       0       0       0       0       0       0       0
       0       0       0       0       0       0       0       0       0       0
       0       0       0       0       0       0       0       0       0       0
       0       0       0       0       0       0       0       0       0       0
       0       0       0       0       0       0       0       0       0       0
       0       0       0       0       0       0       0       0       0       0
       0       0       0       0       0       0       0       0       0       0
       0       0       0       0       0       0       0       0       0       0
       0       0       0       0       0       0       0       0       0       0
       0       0       0       0       0       0       0       0       0       0
       0       0       0       0       0       0       0       0       0       0
       0       0       0       0       0       0       0       0       0       0
       0       0       0       0       0       0       0       0       0       0
       0       0       0       0       0       0       0       0       0       0
       0       0       0       0       0       0       0       0       0       0
       0       0       0       0       0       0       0       0       0       0
       0       0       0       0       0       0       0       0       0       0
       0       0       0       0       0       0       0       0       0       0
       0       0       0       0       0       0       0       0       0       0
       0       0       0       0       0       0       0       0       0       0
       0       0       0       0       0       0       0       0       0       0
       0       0       0       0       0       0       0       0       0       0
       0       0       0       0       0       0       0       0       0       0
       0       0       0       0       0       0       0       0       0       0
       0       0       0       0       0       0       0       0       0       0
       0       0       0       0       0       0       0       0       0       0
       0       0       0       0       0       0       0       0       0       0
       0       0       0       0       0       0       0       0       0       0
       0       0       0       0       0       0       0       0       0       0
       0       0       0       0       0       0       0       0       0       0
       0       0       0       0       0       0       0       0       0       0
       0       0       0       0       0       0       0       0       0       0
       0       0       0       0       0       0       0       0       0       0
       0       0       0       0       0       0       0       0       0       0
       0       0       0       0       0       0       0       0       0       0
       0       0       0       0       0       0       0       0       0       0
       0       0       0       0       0       0       0       0       0       0
       0       0       0       0       0       0       0       0       0       0
       0       0       0       0       0       0       0       0       0       0
       0       0       0       0       0       0       0       0       0       0
       0       0       0       0       0       0       0       0       0       0
       0       0       0       0       0       0       0       0       0       0
       0       0       0       0       0       0       0       0       0       0
       0       0       0       0       0       0       0       0       0       0
       0       0       0       0       0       0       0       0       0       0
       0       0       0       0       0       0       0       0       0       0
       0       0       0       0       0       0       0       0       0       0
       0       0       0       0       0       0       0       0       0       0
       0       0       0       0       0       0       0       0       0       0
       0       0       0       0       0       0       0       0       0       0
       0       0       0       0       0       0       0       0       0       0
       0       0       0       0       0       0       0       0       0       0
       0       0       0       0       0       0       0       0       0       0
       0       0       0       0       0       0       0       0       0       0
       0       0       0       0       0       0       0       0       0       0
       0       0       0       0       0       0       0       0       0       0
       0       0       0       0       0       0       0       0       0       0
       0       0       0       0       0       0       0       0       0       0
       0       0       0       0       0       0       0       0       0       0
       0       0       0       0       0       0       0       0       0       0
       0       0       0       0       0       0       0       0       0       0
       0       0       0       0       0       0       0       0       0       0
       0       0       0       0       0       0       0       0       0       0
       0       0       0       0       0       0       0       0       0       0
       0       0       0       0       0       0       0       0       0       0
       0       0       0       0       0       0       0       0       0       0
       0       0       0       0       0       0       0       0       0       0
       0       0       0       0       0       0       0       0       0       0
       0       0       0       0       0       0       0       0       0       0
       0       0       0       0       0       0       0       0       0       0
       0       0       0       0       0       0       0       0       0       0
       0       0       0       0       0       0       0       0       0       0
       0       0       0       0       0       0       0       0       0       0
       0       0       0       0       0       0       0       0       0       0
       0       0       0       0       0       0       0       0       0       0
       0       0       0       0       0       0       0       0       0       0
       0       0       0       0       0       0       0       0       0       0
       0       0       0       0       0       0       0       0       0       0
       0       0       0       0       0       0       0       0       0       0
       0       0       0       0       0       0       0       0       0       0
       0       0       0       0       0       0       0       0       0       0
       0       0       0       0       0       0       0       0       0       0
       0       0       0       0       0       0       0       0       0       0
       0       0       0       0       0       0       0       0       0       0
       0       0       0       0       0       0       0       0       0       0
       0       0       0       0       0       0       0       0       0       0
       0       0       0       0       0       0       0       0       0       0
       0       0       0       0       0       0       0       0       0       0
       0       0       0       0       0       0       0       0       0       0
       0       0       0       0       0       0       0       0       0       0
       0       0       0       0       0       0       0       0       0       0
       0       0       0       0       0       0       0       0       0       0
       0       0       0       0       0       0       0       0       0       0
       0       0       0       0       0       0       0       0       0       0
       0       0       0       0       0       0       0       0       0       0
       0       0       0       0       0       0       0       0       0       0
       0       0       0       0       0       0       0       0       0       0
       0       0       0       0       0       0       0       0       0       0
       0       0       0       0       0       0       0       0       0       0
       0       0       0       0       0       0       0       0       0       0
       0       0       0       0       0       0       0       0       0       0
       0       0       0       0       0       0       0       0       0       0
       0       0       0       0       0       0       0       0       0       0
       0       0       0       0       0       0       0       0       0       0
       0       0       0       0       0       0       0       0       0       0
       0       0       0       0       0       0       0       0       0       0
       0       0       0       0       0       0       0       0       0       0
       0       0       0       0       0       0       0       0       0       0
       0       0       0       0       0       0       0       0       0       0
       0       0       0       0       0       0       0       0       0       0
       0       0       0       0       0       0       0       0       0       0
       0       0       0       0       0       0       0       0       0       0
       0       0       0       0       0       0       0       0       0       0
       0       0       0       0       0       0       0       0       0       0
       0       0       0       0       0       0       0       0       0       0
       0       0       0       0       0       0       0       0       0       0
       0       0       0       0       0       0       0       0       0       0
       0       0       0       0       0       0       0       0       0       0
       0       0       0       0       0       0       0       0       0       0
       0       0       0       0       0       0       0       0       0       0
       0       0       0       0       0       0       0       0       0       0
       0       0       0       0       0       0       0       0       0       0
       0       0       0       0       0       0       0       0       0       0
       0       0       0       0       0       0       0       0       0       0
       0       0       0       0       0       0       0       0       0       0
       0       0       0       0       0       0       0       0       0       0
       0       0       0       0       0       0       0       0       0       0
       0       0       0       0       0       0       0       0       0       0
       0       0       0       0       0       0       0       0       0       0
       0       0       0       0       0       0       0       0       0       0
       0       0       0       0       0       0       0       0       0       0
       0       0       0       0       0       0       0       0       0       0
       0       0       0       0       0       0       0       0       0       0
       0       0       0       0       0       0       0       0       0       0
       0       0       0       0       0       0       0       0       0       0
       0       0       0       0       0       0       0       0       0       0
       0       0       0       0       0       0       0       0       0       0
       0       0       0       0       0       0       0       0       0       0
       0       0       0       0       0       0       0       0       0       0
       0       0       0       0       0       0       0       0       0       0
       0       0       0       0       0       0       0       0       0       0
       0       0       0       0       0       0       0       0       0       0
       0       0       0       0       0       0       0       0       0       0
       0       0       0       0       0       0       0       0       0       0
       0       0       0       0       0       0       0       0       0       0
       0       0       0       0       0       0       0       0       0       0
       0       0       0       0       0       0       0       0       0       0
       0       0       0       0       0       0       0       0       0       0
       0       0       0       0       0       0       0       0       0       0
       0       0       0       0       0       0       0       0       0       0
       0       0       0       0       0       0       0       0       0       0
       0       0       0       0       0       0       0       0       0       0
       0       0       0       0       0       0       0       0       0       0
       0       0       0       0       0       0       0       0       0       0
       0       0       0       0       0       0       0       0       0       0
       0       0       0       0       0       0       0       0       0       0
       0       0       0       0       0       0       0       0       0       0
       0       0       0       0       0       0       0       0       0       0
       0       0       0       0       0       0       0       0       0       0
       0       0       0       0       0       0       0       0       0       0
       0       0       0       0       0       0       0       0       0       0
       0       0       0       0       0       0       0       0       0       0
       0       0       0       0       0       0       0       0       0       0
       0       0       0       0       0       0       0       0       0       0
       0       0       0       0       0       0       0       0       0       0
       0       0       0       0       0       0       0       0       0       0
       0       0       0       0       0       0       0       0       0       0
       0       0       0       0       0       0       0       0       0       0
       0       0       0       0       0       0       0       0       0       0
       0       0       0       0       0       0       0       0       0       0
       0       0       0       0       0       0       0       0       0       0
       0       0       0       0       0       0       0       0       0       0
       0       0       0       0       0       0       0       0       0       0
       0       0       0       0       0       0       0       0       0       0
       0       0       0       0       0       0       0       0       0       0
       0       0       0       0       0       0       0       0       0       0
       0       0       0       0       0       0       0       0       0       0
       0       0       0       0       0       0       0       0       0       0
       0       0       0       0       0       0       0       0       0       0
       0       0       0       0       0       0       0       0       0       0
       0       0       0       0       0       0       0       0       0       0
       0       0       0       0       0       0       0       0       0       0
       0       0       0       0       0       0       0       0       0       0
       0       0       0       0       0       0       0       0       0       0
       0       0       0       0       0       0       0       0       0       0
       0       0       0       0       0       0       0       0       0       0
       0       0       0       0       0       0       0       0       0       0
       0       0       0       0       0       0       0       0       0       0
       0       0       0       0       0       0       0       0       0       0
       0       0       0       0       0       0       0       0       0       0
       0       0       0       0       0       0       0       0       0       0
       0       0       0       0       0       0       0       0       0       0
       0       0       0       0       0       0       0       0       0       0
       0       0       0       0       0       0       0       0       0       0
       0       0       0       0       0       0       0       0       0       0
       0       0       0       0       0       0       0       0       0       0
       0       0       0       0       0       0       0       0       0       0
       0       0       0       0       0       0       0       0       0       0
       0       0       0       0       0       0       0       0       0       0
       0       0       0       0       0       0       0       0       0       0
       0       0       0       0       0       0       0       0       0       0
       0       0       0       0       0       0       0       0       0       0
       0       0       0       0       0       0       0       0       0       0
       0       0       0       0       0       0       0       0       0       0
       0       0       0       0       0       0       0       0       0       0
       0       0       0       0       0       0       0       0       0       0
       0       0       0       0       0       0       0       0       0       0
       0       0       0       0       0       0       0       0       0       0
       0       0       0       0       0       0       0       0       0       0
       0       0       0       0       0       0       0       0       0       0
       0       0       0       0       0       0       0       0       0       0
       0       0       0       0       0       0       0       0       0       0
       0       0       0       0       0       0       0       0       0       0
       0       0       0       0       0       0       0       0       0       0
       0       0       0       0       0       0       0       0       0       0
       0       0       0       0       0       0       0       0       0       0
       0       0       0       0       0       0       0       0       0       0
       0       0       0       0       0       0       0       0       0       0
       0       0       0       0       0       0       0       0       0       0
       0       0       0       0       0       0       0       0       0       0
       0       0       0       0       0       0       0       0       0       0
       0       0       0       0       0       0       0       0       0       0
       0       0       0       0       0       0       0       0       0       0
       0       0       0       0       0       0       0       0       0       0
       0       0       0       0       0       0       0       0       0       0
       0       0       0       0       0       0       0       0       0       0
       0       0       0       0       0       0       0       0       0       0
       0       0       0       0       0       0       0       0       0       0
       0       0       0       0       0       0       0       0       0       0
       0       0       0       0       0       0       0       0       0       0
       0       0       0       0       0       0       0       0       0       0
       0       0       0       0       0       0       0       0       0       0
       0       0       0       0       0       0       0       0       0       0
       0       0       0       0       0       0       0       0       0       0
       0       0       0       0       0       0       0       0       0       0
       0       0       0       0       0       0       0       0       0       0
       0       0       0       0       0       0       0       0       0       0
       0       0       0       0       0       0       0       0       0       0
       0       0       0       0       0       0       0       0       0       0
       0       0       0       0       0       0       0       0       0       0
       0       0       0       0       0       0       0       0       0       0
       0       0       0       0       0       0       0       0       0       0
       0       0       0       0       0       0       0       0       0       0
       0       0       0       0       0       0       0       0       0       0
       0       0       0       0       0       0       0       0       0       0
       0       0       0       0       0       0       0       0       0       0
       0       0       0       0       0       0       0       0       0       0
       0       0       0       0       0       0       0       0       0       0
       0       0       0       0       0       0       0       0       0       0
       0       0       0       0       0       0       0       0       0       0
       0       0       0       0       0       0       0       0       0       0
       0       0       0       0       0       0       0       0       0       0
       0       0       0       0       0       0       0       0       0       0
       0       0       0       0       0       0       0       0       0       0
       0       0       0       0       0       0       0       0       0       0
       0       0       0       0       0       0       0       0       0       0
       0       0       0       0       0       0       0       0       0       0
       0       0       0       0       0       0       0       0       0       0
       0       0       0       0       0       0       0       0       0       0
       0       0       0       0       0       0       0       0       0       0
       0       0       0       0       0       0       0       0       0       0
       0       0       0       0       0       0       0       0       0       0
       0       0       0       0       0       0       0       0       0       0
       0       0       0       0       0       0       0       0       0       0
       0       0       0       0       0       0       0       0       0       0
       0       0       0       0       0       0       0       0       0       0
       0       0       0       0       0       0       0       0       0       0
       0       0       0       0       0       0       0       0       0       0
       0       0       0       0       0       0       0       0       0       0
       0       0       0       0       0       0       0       0       0       0
       0       0       0       0       0       0       0       0       0       0
       0       0       0       0       0       0       0       0       0       0
       0       0       0       0       0       0       0       0       0       0
       0       0       0       0       0       0       0       0       0       0
       0       0       0       0       0       0       0       0       0       0
       0       0       0       0       0       0       0       0       0       0
       0       0       0       0       0       0       0       0       0       0
       0       0       0       0       0       0       0       0       0       0
       0       0       0       0       0       0       0       0       0       0
       0       0       0       0       0       0       0       0       0       0
       0       0       0       0       0       0       0       0       0       0
       0       0       0       0       0       0       0       0       0       0
       0       0       0       0       0       0       0       0       0       0
       0       0       0       0       0       0       0       0       0       0
       0       0       0       0       0       0       0       0       0       0
       0       0       0       0       0       0       0       0       0       0
       0       0       0       0       0       0       0       0       0       0
       0       0       0       0       0       0       0       0       0       0
       0       0       0       0       0       0       0       0       0       0
       0       0       0       0       0       0       0       0       0       0
       0       0       0       0       0       0       0       0       0       0
       0       0       0       0       0       0       0       0       0       0
       0       0       0       0       0       0       0       0       0       0
       0       0       0       0       0       0       0       0       0       0
       0       0       0       0       0       0       0       0       0       0
       0       0       0       0       0       0       0       0       0       0
       0       0       0       0       0       0       0       0       0       0
       0       0       0       0       0       0       0       0       0       0
       0       0       0       0       0       0       0       0       0       0
       0       0       0       0       0       0       0       0       0       0
       0       0       0       0       0       0       0       0       0       0
       0       0       0       0       0       0       0       0       0       0
       0       0       0       0       0       0       0       0       0       0
       0       0       0       0       0       0       0       0       0       0
       0       0       0       0       0       0       0       0       0       0
       0       0       0       0       0       0       0       0       0       0
       0       0       0       0       0       0       0       0       0       0
       0       0       0       0       0       0       0       0       0       0
       0       0       0       0       0       0       0       0       0       0
       0       0       0       0       0       0       0       0       0       0
       0       0       0       0       0       0       0       0       0       0
       0       0       0       0       0       0       0       0       0       0
       0       0       0       0       0       0       0       0       0       0
       0       0       0       0       0       0       0       0       0       0
       0       0       0       0       0       0       0       0       0       0
       0       0       0       0       0       0       0       0       0       0
       0       0       0       0       0       0       0       0       0       0
       0       0       0       0       0       0       0       0       0       0
       0       0       0       0       0       0       0       0       0       0
       0       0       0       0       0       0       0       0       0       0
       0       0       0       0       0       0       0       0       0       0
       0       0       0       0       0       0       0       0       0       0
       0       0       0       0       0       0       0       0       0       0
       0       0       0       0       0       0       0       0       0       0
       0       0       0       0       0       0       0       0       0       0
       0       0       0       0       0       0       0       0       0       0
       0       0       0       0       0       0       0       0       0       0
       0       0       0       0       0       0       0       0       0       0
       0       0       0       0       0       0       0       0       0       0
       0       0       0       0       0       0       0       0       0       0
       0       0       0       0       0       0       0       0       0       0
       0       0       0       0       0       0       0       0       0       0
       0       0       0       0       0       0       0       0       0       0
       0       0       0       0       0       0       0       0       0       0
       0       0       0       0       0       0       0       0       0       0
       0       0       0       0       0       0       0       0       0       0
       0       0       0       0       0       0       0       0       0       0
       0       0       0       0       0       0       0       0       0       0
       0       0       0       0       0       0       0       0       0       0
       0       0       0       0       0       0       0       0       0       0
       0       0       0       0       0       0       0       0       0       0
       0       0       0       0       0       0       0       0       0       0
       0       0       0       0       0       0       0       0       0       0
       0       0       0       0       0       0       0       0       0       0
       0       0       0       0       0       0       0       0       0       0
       0       0       0       0       0       0       0       0       0       0
       0       0       0       0       0       0       0       0       0       0
       0       0       0       0       0       0       0       0       0       0
       0       0       0       0       0       0       0       0       0       0
       0       0       0       0       0       0       0       0       0       0
       0       0       0       0       0       0       0       0       0       0
       0       0       0       0       0       0       0       0       0       0
       0       0       0       0       0       0       0       0       0       0
       0       0       0       0       0       0       0       0       0       0
       0       0       0       0       0       0       0       0       0       0
       0       0       0       0       0       0       0       0       0       0
       0       0       0       0       0       0       0       0       0       0
       0       0       0       0       0       0       0       0       0       0
       0       0       0       0       0       0       0       0       0       0
       0       0       0       0       0       0       0       0       0       0
       0       0       0       0       0       0       0       0       0       0
       0       0       0       0       0       0       0       0       0       0
       0       0       0       0       0       0       0       0       0       0
       0       0       0       0       0       0       0       0       0       0
       0       0       0       0       0       0       0       0       0       0
       0       0       0       0       0       0       0       0       0       0
       0       0       0       0       0       0       0       0       0       0
       0       0       0       0       0       0       0       0       0       0
       0       0       0       0       0       0       0       0       0       0
       0       0       0       0       0       0       0       0       0       0
       0       0       0       0       0       0       0       0       0       0
       0       0       0       0       0       0       0       0       0       0
       0       0       0       0       0       0       0       0       0       0
       0       0       0       0       0       0       0       0       0       0
       0       0       0       0       0       0       0       0       0       0
       0       0       0       0       0       0       0       0       0       0
       0       0       0       0       0       0       0       0       0       0
       0       0       0       0       0       0       0       0       0       0
       0       0       0       0       0       0       0       0       0       0
       0       0       0       0       0       0       0       0       0       0
       0       0       0       0       0       0       0       0       0       0
       0       0       0       0       0       0       0       0       0       0
       0       0       0       0       0       0       0       0       0       0
       0       0       0       0       0       0       0       0       0       0
       0       0       0       0       0       0       0       0       0       0
       0       0       0       0       0       0       0       0       0       0
       0       0       0       0       0       0       0       0       0       0
       0       0       0       0       0       0       0       0       0       0
       0       0       0       0       0       0       0       0       0       0
       0       0       0       0       0       0       0       0       0       0
       0       0       0       0       0       0       0       0       0       0
       0       0       0       0       0       0       0       0       0       0
       0       0       0       0       0       0       0       0       0       0
       0       0       0       0       0       0       0       0       0       0
       0       0       0       0       0       0       0       0       0       0
       0       0       0       0       0       0       0       0       0       0
       0       0       0       0       0       0       0       0       0       0
       0       0       0       0       0       0       0       0       0       0
       0       0       0       0       0       0       0       0       0       0
       0       0       0       0       0       0       0       0       0       0
       0       0       0       0       0       0       0       0       0       0
       0       0       0       0       0       0       0       0       0       0
       0       0       0       0       0       0       0       0       0       0
       0       0       0       0       0       0       0       0       0       0
       0       0       0       0       0       0       0       0       0       0
       0       0       0       0       0       0       0       0       0       0
       0       0       0       0       0       0       0       0       0       0
       0       0       0       0       0       0       0       0       0       0
       0       0       0       0       0       0       0       0       0       0
       0       0       0       0       0       0       0       0       0       0
       0       0       0       0       0       0       0       0       0       0
       0       0       0       0       0       0       0       0       0       0
       0       0       0       0       0       0       0       0       0       0
       0       0       0       0       0       0       0       0       0       0
       0       0       0       0       0       0       0       0       0       0
       0       0       0       0       0       0       0       0       0       0
       0       0       0       0       0       0       0       0       0       0
       0       0       0       0       0       0       0       0       0       0
       0       0       0       0       0       0       0       0       0       0
       0       0       0       0       0       0       0       0       0       0
       0       0       0       0       0       0       0       0       0       0
       0       0       0       0       0       0       0       0       0       0
       0       0       0       0       0       0       0       0       0       0
       0       0       0       0       0       0       0       0       0       0
       0       0       0       0       0       0       0       0       0       0
       0       0       0       0       0       0       0       0       0       0
       0       0       0       0       0       0       0       0       0       0
       0       0       0       0       0       0       0       0       0       0
       0       0       0       0       0       0       0       0       0       0
       0       0       0       0       0       0       0       0       0       0
       0       0       0       0       0       0       0       0       0       0
       0       0       0       0       0       0       0       0       0       0
       0       0       0       0       0       0       0       0       0       0
       0       0       0       0       0       0       0       0       0       0
       0       0       0       0       0       0       0       0       0       0
       0       0       0       0       0       0       0       0       0       0
       0       0       0       0       0       0       0       0       0       0
       0       0       0       0       0       0       0       0       0       0
       0       0       0       0       0       0       0       0       0       0
       0       0       0       0       0       0       0       0       0       0
       0       0       0       0       0       0       0       0       0       0
       0       0       0       0       0       0       0       0       0       0
       0       0       0       0       0       0       0       0       0       0
       0       0       0       0       0       0       0       0       0       0
       0       0       0       0       0       0       0       0       0       0
       0       0       0       0       0       0       0       0       0       0
       0       0       0       0       0       0       0       0       0       0
       0       0       0       0       0       0       0       0       0       0
       0       0       0       0       0       0       0       0       0       0
       0       0       0       0       0       0       0       0       0       0
       0       0       0       0       0       0       0       0       0       0
       0       0       0       0       0       0       0       0       0       0
       0       0       0       0       0       0       0       0       0       0
       0       0       0       0       0       0       0       0       0       0
       0       0       0       0       0       0       0       0       0       0
       0       0       0       0       0       0       0       0       0       0
       0       0       0       0       0       0       0       0       0       0
       0       0       0       0       0       0       0       0       0       0
       0       0       0       0       0       0       0       0       0       0
       0       0       0       0       0       0       0       0       0       0
       0       0       0       0       0       0       0       0       0       0
       0       0       0       0       0       0       0       0       0       0
       0       0       0       0       0       0       0       0       0       0
       0       0       0       0       0       0       0       0       0       0
       0       0       0       0       0       0       0       0       0       0
       0       0       0       0       0       0       0       0       0       0
       0       0       0       0       0       0       0       0       0       0
       0       0       0       0       0       0       0       0       0       0
       0       0       0       0       0       0       0       0       0       0
       0       0       0       0       0       0       0       0       0       0
       0       0       0       0       0       0       0       0       0       0
       0       0       0       0       0       0       0       0       0       0
       0       0       0       0       0       0       0       0       0       0
       0       0       0       0       0       0       0       0       0       0
       0       0       0       0       0       0       0       0       0       0
       0       0       0       0       0       0       0       0       0       0
       0       0       0       0       0       0       0       0       0       0
       0       0       0       0       0       0       0       0       0       0
       0       0       0       0       0       0       0       0       0       0
       0       0       0       0       0       0       0       0       0       0
       0       0       0       0       0       0       0       0       0       0
       0       0       0       0       0       0       0       0       0       0
       0       0       0       0       0       0       0       0       0       0
       0       0       0       0       0       0       0       0       0       0
       0       0       0       0       0       0       0       0       0       0
       0       0       0       0       0       0       0       0       0       0
       0       0       0       0       0       0       0       0       0       0
       0       0       0       0       0       0       0       0       0       0
       0       0       0       0       0       0       0       0       0       0
       0       0       0       0       0       0       0       0       0       0
       0       0       0       0       0       0       0       0       0       0
       0       0       0       0       0       0       0       0       0       0
       0       0       0       0       0       0       0       0       0       0
       0       0       0       0       0       0       0       0       0       0
       0       0       0       0       0       0       0       0       0       0
       0       0       0       0       0       0       0       0       0       0
       0       0       0       0       0       0       0       0       0       0
       0       0       0       0       0       0       0       0       0       0
       0       0       0       0       0       0       0       0       0       0
       0       0       0       0       0       0       0       0       0       0
       0       0       0       0       0       0       0       0       0       0
       0       0       0       0       0       0       0       0       0       0
       0       0       0       0       0       0       0       0       0       0
       0       0       0       0       0       0       0       0       0       0
       0       0       0       0       0       0       0       0       0       0
       0       0       0       0       0       0       0       0       0       0
       0       0       0       0       0       0       0       0       0       0
       0       0       0       0       0       0       0       0       0       0
       0       0       0       0       0       0       0       0       0       0
       0       0       0       0       0       0       0       0       0       0
       0       0       0       0       0       0       0       0       0       0
       0       0       0       0       0       0       0       0       0       0
       0       0       0       0       0       0       0       0       0       0
       0       0       0       0       0       0       0       0       0       0
       0       0       0       0       0       0       0       0       0       0
       0       0       0       0       0       0       0       0       0       0
       0       0       0       0       0       0       0       0       0       0
       0       0       0       0       0       0       0       0       0       0
       0       0       0       0       0       0       0       0       0       0
       0       0       0       0       0       0       0       0       0       0
       0       0       0       0       0       0       0       0       0       0
       0       0       0       0       0       0       0       0       0       0
       0       0       0       0       0       0       0       0       0       0
       0       0       0       0       0       0       0       0       0       0
       0       0       0       0       0       0       0       0       0       0
       0       0       0       0       0       0       0       0       0       0
       0       0       0       0       0       0       0       0       0       0
       0       0       0       0       0       0       0       0       0       0
       0       0       0       0       0       0       0       0       0       0
       0       0       0       0       0       0       0       0       0       0
       0       0       0       0       0       0       0       0       0       0
       0       0       0       0       0       0       0       0       0       0
       0       0       0       0       0       0       0       0       0       0
       0       0       0       0       0       0       0       0       0       0
       0       0       0       0       0       0       0       0       0       0
       0       0       0       0       0       0       0       0       0       0
       0       0       0       0       0       0       0       0       0       0
       0       0       0       0       0       0       0       0       0       0
       0       0       0       0       0       0       0       0       0       0
       0       0       0       0       0       0       0       0       0       0
       0       0       0       0       0       0       0       0       0       0
       0       0       0       0       0       0       0       0       0       0
       0       0       0       0       0       0       0       0       0       0
       0       0       0       0       0       0       0       0       0       0
       0       0       0       0       0       0       0       0       0       0
       0       0       0       0       0       0       0       0       0       0
       0       0       0       0       0       0       0       0       0       0
       0       0       0       0       0       0       0       0       0       0
       0       0       0       0       0       0       0       0       0       0
       0       0       0       0       0       0       0       0       0       0
       0       0       0       0       0       0       0       0       0       0
       0       0       0       0       0       0       0       0       0       0
       0       0       0       0       0       0       0       0       0       0
       0       0       0       0       0       0       0       0       0       0
       0       0       0       0       0       0       0       0       0       0
       0       0       0       0       0       0       0       0       0       0
       0       0       0       0       0       0       0       0       0       0
       0       0       0       0       0       0       0       0       0       0
       0       0       0       0       0       0       0       0       0       0
       0       0       0       0       0       0       0       0       0       0
       0       0       0       0       0       0       0       0       0       0
       0       0       0       0       0       0       0       0       0       0
       0       0       0       0       0       0       0       0       0       0
       0       0       0       0       0       0       0       0       0       0
       0       0       0       0       0       0       0       0       0       0
       0       0       0       0       0       0       0       0       0       0
       0       0       0       0       0       0       0       0       0       0
       0       0       0       0       0       0       0       0       0       0
       0       0       0       0       0       0       0       0       0       0
       0       0       0       0       0       0       0       0       0       0
       0       0       0       0       0       0       0       0       0       0
       0       0       0       0       0       0       0       0       0       0
       0       0       0       0       0       0       0       0       0       0
       0       0       0       0       0       0       0       0       0       0
       0       0       0       0       0       0       0       0       0       0
       0       0       0       0       0       0       0       0       0       0
       0       0       0       0       0       0       0       0       0       0
       0       0       0       0       0       0       0       0       0       0
       0       0       0       0       0       0       0       0       0       0
       0       0       0       0       0       0       0       0       0       0
       0       0       0       0       0       0       0       0       0       0
       0       0       0       0       0       0       0       0       0       0
       0       0       0       0       0       0       0       0       0       0
       0       0       0       0       0       0       0       0       0       0
       0       0       0       0       0       0       0       0       0       0
       0       0       0       0       0       0       0       0       0       0
       0       0       0       0       0       0       0       0       0       0
       0       0       0       0       0       0       0       0       0       0
       0       0       0       0       0       0       0       0       0       0
       0       0       0       0       0       0       0       0       0       0
       0       0       0       0       0       0       0       0       0       0
       0       0       0       0       0       0       0       0       0       0
       0       0       0       0       0       0       0       0       0       0
       0       0       0       0       0       0       0       0       0       0
       0       0       0       0       0       0       0       0       0       0
       0       0       0       0       0       0       0       0       0       0
       0       0       0       0       0       0       0       0       0       0
       0       0       0       0       0       0       0       0       0       0
       0       0       0       0       0       0       0       0       0       0
       0       0       0       0       0       0       0       0       0       0
       0       0       0       0       0       0       0       0       0       0
       0       0       0       0       0       0       0       0       0       0
       0       0       0       0       0       0       0       0       0       0
       0       0       0       0       0       0       0       0       0       0
       0       0       0       0       0       0       0       0       0       0
       0       0       0       0       0       0       0       0       0       0
       0       0       0       0       0       0       0       0       0       0
       0       0       0       0       0       0       0       0       0       0
       0       0       0       0       0       0       0       0       0       0
       0       0       0       0       0       0       0       0       0       0
       0       0       0       0       0       0       0       0       0       0
       0       0       0       0       0       0       0       0       0       0
       0       0       0       0       0       0       0       0       0       0
       0       0       0       0       0       0       0       0       0       0
       0       0       0       0       0       0       0       0       0       0
       0       0       0       0       0       0       0       0       0       0
       0       0       0       0       0       0       0       0       0       0
       0       0       0       0       0       0       0       0       0       0
       0       0       0       0       0       0       0       0       0       0
       0       0       0       0       0       0       0       0       0       0
       0       0       0       0       0       0       0       0       0       0
       0       0       0       0       0       0       0       0       0       0
       0       0       0       0       0       0       0       0       0       0
       0       0       0       0       0       0       0       0       0       0
       0       0       0       0       0       0       0       0       0       0
       0       0       0       0       0       0       0       0       0       0
       0       0       0       0       0       0       0       0       0       0
       0       0       0       0       0       0       0       0       0       0
       0       0       0       0       0       0       0       0       0       0
       0       0       0       0       0       0       0       0       0       0
       0       0       0       0       0       0       0       0       0       0
       0       0       0       0       0       0       0       0       0       0
       0       0       0       0       0       0       0       0       0       0
       0       0       0       0       0       0       0       0       0       0
       0       0       0       0       0       0       0       0       0       0
       0       0       0       0       0       0       0       0       0       0
       0       0       0       0       0       0       0       0       0       0
       0       0       0       0       0       0       0       0       0       0
       0       0       0       0       0       0       0       0       0       0
       0       0       0       0       0       0       0       0       0       0
       0       0       0       0       0       0       0       0       0       0
       0       0       0       0       0       0       0       0       0       0
       0       0       0       0       0       0       0       0       0       0
       0       0       0       0       0       0       0       0       0       0
       0       0       0       0       0       0       0       0       0       0
       0       0       0       0       0       0       0       0       0       0
       0       0       0       0       0       0       0       0       0       0
       0       0       0       0       0       0       0       0       0       0
       0       0       0       0       0       0       0       0       0       0
       0       0       0       0       0       0       0       0       0       0
       0       0       0       0       0       0       0       0       0       0
       0       0       0       0       0       0       0       0       0       0
       0       0       0       0       0       0       0       0       0       0
       0       0       0       0       0       0       0       0       0       0
       0       0       0       0       0       0       0       0       0       0
       0       0       0       0       0       0       0       0       0       0
       0       0       0       0       0       0       0       0       0       0
       0       0       0       0       0       0       0       0       0       0
       0       0       0       0       0       0       0       0       0       0
       0       0       0       0       0       0       0       0       0       0
       0       0       0       0       0       0       0       0       0       0
       0       0       0       0       0       0       0       0       0       0
       0       0       0       0       0       0       0       0       0       0
       0       0       0       0       0       0       0       0       0       0
       0       0       0       0       0       0       0       0       0       0
       0       0       0       0       0       0       0       0       0       0
       0       0       0       0       0       0       0       0       0       0
       0       0       0       0       0       0       0       0       0       0
       0       0       0       0       0       0       0       0       0       0
       0       0       0       0       0       0       0       0       0       0
       0       0       0       0       0       0       0       0       0       0
       0       0       0       0       0       0       0       0       0       0
       0       0       0       0       0       0       0       0       0       0
       0       0       0       0       0       0       0       0       0       0
       0       0       0       0       0       0       0       0       0       0
       0       0       0       0       0       0       0       0       0       0
       0       0       0       0       0       0       0       0       0       0
       0       0       0       0       0       0       0       0       0       0
       0       0       0       0       0       0       0       0       0       0
       0       0       0       0       0       0       0       0       0       0
       0       0       0       0       0       0       0       0       0       0
       0       0       0       0       0       0       0       0       0       0
       0       0       0       0       0       0       0       0       0       0
       0       0       0       0       0       0       0       0       0       0
       0       0       0       0       0       0       0       0       0       0
       0       0       0       0       0       0       0       0       0       0
       0       0       0       0       0       0       0       0       0       0
       0       0       0       0       0       0       0       0       0       0
       0       0       0       0       0       0       0       0       0       0
       0       0       0       0       0       0       0       0       0       0
       0       0       0       0       0       0       0       0       0       0
       0       0       0       0       0       0       0       0       0       0
       0       0       0       0       0       0       0       0       0       0
       0       0       0       0       0       0       0       0       0       0
       0       0       0       0       0       0       0       0       0       0
       0       0       0       0       0       0       0       0       0       0
       0       0       0       0       0       0       0       0       0       0
       0       0       0       0       0       0       0       0       0       0
       0       0       0       0       0       0       0       0       0       0
       0       0       0       0       0       0       0       0       0       0
       0       0       0       0       0       0       0       0       0       0
       0       0       0       0       0       0       0       0       0       0
       0       0       0       0       0       0       0       0       0       0
       0       0       0       0       0       0       0       0       0       0
       0       0       0       0       0       0       0       0       0       0
       0       0       0       0       0       0       0       0       0       0
       0       0       0       0       0       0       0       0       0       0
       0       0       0       0       0       0       0       0       0       0
       0       0       0       0       0       0       0       0       0       0
       0       0       0       0       0       0       0       0       0       0
       0       0       0       0       0       0       0       0       0       0
       0       0       0       0       0       0       0       0       0       0
       0       0       0       0       0       0       0       0       0       0
       0       0       0       0       0       0       0       0       0       0
       0       0       0       0       0       0       0       0       0       0
       0       0       0       0       0       0       0       0       0       0
       0       0       0       0       0       0       0       0       0       0
       0       0       0       0       0       0       0       0       0       0
       0       0       0       0       0       0       0       0       0       0
       0       0       0       0       0       0       0       0       0       0
       0       0       0       0       0       0       0       0       0       0
       0       0       0       0       0       0       0       0       0       0
       0       0       0       0       0       0       0       0       0       0
       0       0       0       0       0       0       0       0       0       0
       0       0       0       0       0       0       0       0       0       0
       0       0       0       0       0       0       0       0       0       0
       0       0       0       0       0       0       0       0       0       0
       0       0       0       0       0       0       0       0       0       0
       0       0       0       0       0       0       0       0       0       0
       0       0       0       0       0       0       0       0       0       0
       0       0       0       0       0       0       0       0       0       0
       0       0       0       0       0       0       0       0       0       0
       0       0       0       0       0       0       0       0       0       0
       0       0       0       0       0       0       0       0       0       0
       0       0       0       0       0       0       0       0       0       0
       0       0       0       0       0       0       0       0       0       0
       0       0       0       0       0       0       0       0       0       0
       0       0       0       0       0       0       0       0       0       0
       0       0       0       0       0       0       0       0       0       0
       0       0       0       0       0       0       0       0       0       0
       0       0       0       0       0       0       0       0       0       0
       0       0       0       0       0       0       0       0       0       0
       0       0       0       0       0       0       0       0       0       0
       0       0       0       0       0       0       0       0       0       0
       0       0       0       0       0       0       0       0       0       0
       0       0       0       0       0       0       0       0       0       0
       0       0       0       0       0       0       0       0       0       0
       0       0       0       0       0       0       0       0       0       0
       0       0       0       0       0       0       0       0       0       0
       0       0       0       0       0       0       0       0       0       0
       0       0       0       0       0       0       0       0       0       0
       0       0       0       0       0       0       0       0       0       0
       0       0       0       0       0       0       0       0       0       0
       0       0       0       0       0       0       0       0       0       0
       0       0       0       0       0       0       0       0       0       0
       0       0       0       0       0       0       0       0       0       0
       0       0       0       0       0       0       0       0       0       0
       0       0       0       0       0       0       0       0       0       0
       0       0       0       0       0       0       0       0       0       0
       0       0       0       0       0       0       0       0       0       0
       0       0       0       0       0       0       0       0       0       0
       0       0       0       0       0       0       0       0       0       0
       0       0       0       0       0       0       0       0       0       0
       0       0       0       0       0       0       0       0       0       0
       0       0       0       0       0       0       0       0       0       0
       0       0       0       0       0       0       0       0       0       0
       0       0       0       0       0       0       0       0       0       0
       0       0       0       0       0       0       0       0       0       0
       0       0       0       0       0       0       0       0       0       0
       0       0       0       0       0       0       0       0       0       0
       0       0       0       0       0       0       0       0       0       0
       0       0       0       0       0       0       0       0       0       0
       0       0       0       0       0       0       0       0       0       0
       0       0       0       0       0       0       0       0       0       0
       0       0       0       0       0       0       0       0       0       0
       0       0       0       0       0       0       0       0       0       0
       0       0       0       0       0       0       0       0       0       0
       0       0       0       0       0       0       0       0       0       0
       0       0       0       0       0       0       0       0       0       0
       0       0       0       0       0       0       0       0       0       0
       0       0       0       0       0       0       0       0       0       0
       0       0       0       0       0       0       0       0       0       0
       0       0       0       0       0       0       0       0       0       0
       0       0       0       0       0       0       0       0       0       0
       0       0       0       0       0       0       0       0       0       0
       0       0       0       0       0       0       0       0       0       0
       0       0       0       0       0       0       0       0       0       0
       0       0       0       0       0       0       0       0       0       0
       0       0       0       0       0       0       0       0       0       0
       0       0       0       0       0       0       0       0       0       0
       0       0       0       0       0       0       0       0       0       0
       0       0       0       0       0       0       0       0       0       0
       0       0       0       0       0       0       0       0       0       0
       0       0       0       0       0       0       0       0       0       0
       0       0       0       0       0       0       0       0       0       0
       0       0       0       0       0       0       0       0       0       0
       0       0       0       0       0       0       0       0       0       0
       0       0       0       0       0       0       0       0       0       0
       0       0       0       0       0       0       0       0       0       0
       0       0       0       0       0       0       0       0       0       0
       0       0       0       0       0       0       0       0       0       0
       0       0       0       0       0       0       0       0       0       0
       0       0       0       0       0       0       0       0       0       0
       0       0       0       0       0       0       0       0       0       0
       0       0       0       0       0       0       0       0       0       0
       0       0       0       0       0       0       0       0       0       0
       0       0       0       0       0       0       0       0       0       0
       0       0       0       0       0       0       0       0       0       0
       0       0       0       0       0       0       0       0       0       0
       0       0       0       0       0       0       0       0       0       0
       0       0       0       0       0       0       0       0       0       0
       0       0       0       0       0       0       0       0       0       0
       0       0       0       0       0       0       0       0       0       0
       0       0       0       0       0       0       0       0       0       0
       0       0       0       0       0       0       0       0       0       0
       0       0       0       0       0       0       0       0       0       0
       0       0       0       0       0       0       0       0       0       0
       0       0       0       0       0       0       0       0       0       0
       0       0       0       0       0       0       0       0       0       0
       0       0       0       0       0       0       0       0       0       0
       0       0       0       0       0       0       0       0       0       0
       0       0       0       0       0       0       0       0       0       0
       0       0       0       0       0       0       0       0       0       0
       0       0       0       0       0       0       0       0       0       0
       0       0       0       0       0       0       0       0       0       0
       0       0       0       0       0       0       0       0       0       0
       0       0       0       0       0       0       0       0       0       0
       0       0       0       0       0       0       0       0       0       0
       0       0       0       0       0       0       0       0       0       0
       0       0       0       0       0       0       0       0       0       0
       0       0       0       0       0       0       0       0       0       0
       0       0       0       0       0       0       0       0       0       0
       0       0       0       0       0       0       0       0       0       0
       0       0       0       0       0       0       0       0       0       0
       0       0       0       0       0       0       0       0       0       0
       0       0       0       0       0       0       0       0       0       0
       0       0       0       0       0       0       0       0       0       0
       0       0       0       0       0       0       0       0       0       0
       0       0       0       0       0       0       0       0       0       0
       0       0       0       0       0       0       0       0       0       0
       0       0       0       0       0       0       0       0       0       0
       0       0       0       0       0       0       0       0       0       0
       0       0       0       0       0       0       0       0       0       0
       0       0       0       0       0       0       0       0       0       0
       0       0       0       0       0       0       0       0       0       0
       0       0       0       0       0       0       0       0       0       0
       0       0       0       0       0       0       0       0       0       0
       0       0       0       0       0       0       0       0       0       0
       0       0       0       0       0       0       0       0       0       0
       0       0       0       0       0       0       0       0       0       0
       0       0       0       0       0       0       0       0       0       0
       0       0       0       0       0       0       0       0       0       0
       0       0       0       0       0       0       0       0       0       0
       0       0       0       0       0       0       0       0       0       0
       0       0       0       0       0       0       0       0       0       0
       0       0       0       0       0       0       0       0       0       0
       0       0       0       0       0       0       0       0       0       0
       0       0       0       0       0       0       0       0       0       0
       0       0       0       0       0       0       0       0       0       0
       0       0       0       0       0       0       0       0       0       0
       0       0       0       0       0       0       0       0       0       0
       0       0       0       0       0       0       0       0       0       0
       0       0       0       0       0       0       0       0       0       0
       0       0       0       0       0       0       0       0       0       0
       0       0       0       0       0       0       0       0       0       0
       0       0       0       0       0       0       0       0       0       0
       0       0       0       0       0       0       0       0       0       0
       0       0       0       0       0       0       0       0       0       0
       0       0       0       0       0       0       0       0       0       0
       0       0       0       0       0       0       0       0       0       0
       0       0       0       0       0       0       0       0       0       0
       0       0       0       0       0       0       0       0       0       0
       0       0       0       0       0       0       0       0       0       0
       0       0       0       0       0       0       0       0       0       0
       0       0       0       0       0       0       0       0       0       0
       0       0       0       0       0       0       0       0       0       0
       0       0       0       0       0       0       0       0       0       0
       0       0       0       0       0       0       0       0       0       0
       0       0       0       0       0       0       0       0       0       0
       0       0       0       0       0       0       0       0       0       0
       0       0       0       0       0       0       0       0       0       0
       0       0       0       0       0       0       0       0       0       0
       0       0       0       0       0       0       0       0       0       0
       0       0       0       0       0       0       0       0       0       0
       0       0       0       0       0       0       0       0       0       0
       0       0       0       0       0       0       0       0       0       0
       0       0       0       0       0       0       0       0       0       0
       0       0       0       0       0       0       0       0       0       0
       0       0       0       0       0       0       0       0       0       0
       0       0       0       0       0       0       0       0       0       0
       0       0       0       0       0       0       0       0       0       0
       0       0       0       0       0       0       0       0       0       0
       0       0       0       0       0       0       0       0       0       0
       0       0       0       0       0       0       0       0       0       0
       0       0       0       0       0       0       0       0       0       0
       0       0       0       0       0       0       0       0       0       0
       0       0       0       0       0       0       0       0       0       0
       0       0       0       0       0       0       0       0       0       0
       0       0       0       0       0       0       0       0       0       0
       0       0       0       0       0       0       0       0       0       0
       0       0       0       0       0       0       0       0       0       0
       0       0       0       0       0       0       0       0       0       0
       0       0       0       0       0       0       0       0       0       0
       0       0       0       0       0       0       0       0       0       0
       0       0       0       0       0       0       0       0       0       0
       0       0       0       0       0       0       0       0       0       0
       0       0       0       0       0       0       0       0       0       0
       0       0       0       0       0       0       0       0       0       0
       0       0       0       0       0       0       0       0       0       0
       0       0       0       0       0       0       0       0       0       0
       0       0       0       0       0       0       0       0       0       0
       0       0       0       0       0       0       0       0       0       0
       0       0       0       0       0       0       0       0       0       0
       0       0       0       0       0       0       0       0       0       0
       0       0       0       0       0       0       0       0       0       0
       0       0       0       0       0       0       0       0       0       0
       0       0       0       0       0       0       0       0       0       0
       0       0       0       0       0       0       0       0       0       0
       0       0       0       0       0       0       0       0       0       0
       0       0       0       0       0       0       0       0       0       0
       0       0       0       0       0       0       0       0       0       0
       0       0       0       0       0       0       0       0       0       0
       0       0       0       0       0       0       0       0       0       0
       0       0       0       0       0       0       0       0       0       0
       0       0       0       0       0       0       0       0       0       0
       0       0       0       0       0       0       0       0       0       0
       0       0       0       0       0       0       0       0       0       0
       0       0       0       0       0       0       0       0       0       0
       0       0       0       0       0       0       0       0       0       0
       0       0       0       0       0       0       0       0       0       0
       0       0       0       0       0       0       0       0       0       0
       0       0       0       0       0       0       0       0       0       0
       0       0       0       0       0       0       0       0       0       0
       0       0       0       0       0       0       0       0       0       0
       0       0       0       0       0       0       0       0       0       0
       0       0       0       0       0       0       0       0       0       0
       0       0       0       0       0       0       0       0       0       0
       0       0       0       0       0       0       0       0       0       0
       0       0       0       0       0       0       0       0       0       0
       0       0       0       0       0       0       0       0       0       0
       0       0       0       0       0       0       0       0       0       0
       0       0       0       0       0       0       0       0       0       0
       0       0       0       0       0       0       0       0       0       0
       0       0       0       0       0       0       0       0       0       0
       0       0       0       0       0       0       0       0       0       0
       0       0       0       0       0       0       0       0       0       0
       0       0       0       0       0       0       0       0       0       0
       0       0       0       0       0       0       0       0       0       0
       0       0       0       0       0       0       0       0       0       0
       0       0       0       0       0       0       0       0       0       0
       0       0       0       0       0       0       0       0       0       0
       0       0       0       0       0       0       0       0       0       0
       0       0       0       0       0       0       0       0       0       0
       0       0       0       0       0       0       0       0       0       0
       0       0       0       0       0       0       0       0       0       0
       0       0       0       0       0       0       0       0       0       0
       0       0       0       0       0       0       0       0       0       0
       0       0       0       0       0       0       0       0       0       0
       0       0       0       0       0       0       0       0       0       0
       0       0       0       0       0       0       0       0       0       0
       0       0       0       0       0       0       0       0       0       0
       0       0       0       0       0       0       0       0       0       0
       0       0       0       0       0       0       0       0       0       0
       0       0       0       0       0       0       0       0       0       0
       0       0       0       0       0       0       0       0       0       0
       0       0       0       0       0       0       0       0       0       0
       0       0       0       0       0       0       0       0       0       0
       0       0       0       0       0       0       0       0       0       0
       0       0       0       0       0       0       0       0       0       0
       0       0       0       0       0       0       0       0       0       0
       0       0       0       0       0       0       0       0       0       0
       0       0       0       0       0       0       0       0       0       0
       0       0       0       0       0       0       0       0       0       0
       0       0       0       0       0       0       0       0       0       0
       0       0       0       0       0       0       0       0       0       0
       0       0       0       0       0       0       0       0       0       0
       0       0       0       0       0       0       0       0       0       0
       0       0       0       0       0       0       0       0       0       0
       0       0       0       0       0       0       0       0       0       0
       0       0       0       0       0       0       0       0       0       0
       0       0       0       0       0       0       0       0       0       0
       0       0       0       0       0       0       0       0       0       0
       0       0       0       0       0       0       0       0       0       0
       0       0       0       0       0       0       0       0       0       0
       0       0       0       0       0       0       0       0       0       0
       0       0       0       0       0       0       0       0       0       0
       0       0       0       0       0       0       0       0       0       0
       0       0       0       0       0       0       0       0       0       0
       0       0       0       0       0       0       0       0       0       0
       0       0       0       0       0       0       0       0       0       0
       0       0       0       0       0       0       0       0       0       0
       0       0       0       0       0       0       0       0       0       0
       0       0       0       0       0       0       0       0       0       0
       0       0       0       0       0       0       0       0       0       0
       0       0       0       0       0       0       0       0       0       0
       0       0       0       0       0       0       0       0       0       0
       0       0       0       0       0       0       0       0       0       0
       0       0       0       0       0       0       0       0       0       0
       0       0       0       0       0       0       0       0       0       0
       0       0       0       0       0       0       0       0       0       0
       0       0       0       0       0       0       0       0       0       0
       0       0       0       0       0       0       0       0       0       0
       0       0       0       0       0       0       0       0       0       0
       0       0       0       0       0       0       0       0       0       0
       0       0       0       0       0       0       0       0       0       0
       0       0       0       0       0       0       0       0       0       0
       0       0       0       0       0       0       0       0       0       0
       0       0       0       0       0       0       0       0       0       0
       0       0       0       0       0       0       0       0       0       0
       0       0       0       0       0       0       0       0       0       0
       0       0       0       0       0       0       0       0       0       0
       0       0       0       0       0       0       0       0       0       0
       0       0       0       0       0       0       0       0       0       0
       0       0       0       0       0       0       0       0       0       0
       0       0       0       0       0       0       0       0       0       0
       0       0       0       0       0       0       0       0       0       0
%FLAG IROTAT
%FORMAT(10I8)
       0       0       0       0       0       0       0       0       0       0
       0       0       0       0       0       0       0       0       0       0
       0       0       0       0       0       0       0       0       0       0
       0       0       0       0       0       0       0       0       0       0
       0       0       0       0       0       0       0       0       0       0
       0       0       0       0       0       0       0       0       0       0
       0       0       0       0       0       0       0       0       0       0
       0       0       0       0       0       0       0       0       0       0
       0       0       0       0       0       0       0       0       0       0
       0       0       0       0       0       0       0       0       0       0
       0       0       0       0       0       0       0       0       0       0
       0       0       0       0       0       0       0       0       0       0
       0       0       0       0       0       0       0       0       0       0
       0       0       0       0       0       0       0       0       0       0
       0       0       0       0       0       0       0       0       0       0
       0       0       0       0       0       0       0       0       0       0
       0       0       0       0       0       0       0       0       0       0
       0       0       0       0       0       0       0       0       0       0
       0       0       0       0       0       0       0       0       0       0
       0       0       0       0       0       0       0       0       0       0
       0       0       0       0       0       0       0       0       0       0
       0       0       0       0       0       0       0       0       0       0
       0       0       0       0       0       0       0       0       0       0
       0       0       0       0       0       0       0       0       0       0
       0       0       0       0       0       0       0       0       0       0
       0       0       0       0       0       0       0       0       0       0
       0       0       0       0       0       0       0       0       0       0
       0       0       0       0       0       0       0       0       0       0
       0       0       0       0       0       0       0       0       0       0
       0       0       0       0       0       0       0       0       0       0
       0       0       0       0       0       0       0       0       0       0
       0       0       0       0       0       0       0       0       0       0
       0       0       0       0       0       0       0       0       0       0
       0       0       0       0       0       0       0       0       0       0
       0       0       0       0       0       0       0       0       0       0
       0       0       0       0       0       0       0       0       0       0
       0       0       0       0       0       0       0       0       0       0
       0       0       0       0       0       0       0       0       0       0
       0       0       0       0       0       0       0       0       0       0
       0       0       0       0       0       0       0       0       0       0
       0       0       0       0       0       0       0       0       0       0
       0       0       0       0       0       0       0       0       0       0
       0       0       0       0       0       0       0       0       0       0
       0       0       0       0       0       0       0       0       0       0
       0       0       0       0       0       0       0       0       0       0
       0       0       0       0       0       0       0       0       0       0
       0       0       0       0       0       0       0       0       0       0
       0       0       0       0       0       0       0       0       0       0
       0       0       0       0       0       0       0       0       0       0
       0       0       0       0       0       0       0       0       0       0
       0       0       0       0       0       0       0       0       0       0
       0       0       0       0       0       0       0       0       0       0
       0       0       0       0       0       0       0       0       0       0
       0       0       0       0       0       0       0       0       0       0
       0       0       0       0       0       0       0       0       0       0
       0       0       0       0       0       0       0       0       0       0
       0       0       0       0       0       0       0       0       0       0
       0       0       0       0       0       0       0       0       0       0
       0       0       0       0       0       0       0       0       0       0
       0       0       0       0       0       0       0       0       0       0
       0       0       0       0       0       0       0       0       0       0
       0       0       0       0       0       0       0       0       0       0
       0       0       0       0       0       0       0       0       0       0
       0       0       0       0       0       0       0       0       0       0
       0       0       0       0       0       0       0       0       0       0
       0       0       0       0       0       0       0       0       0       0
       0       0       0       0       0       0       0       0       0       0
       0       0       0       0       0       0       0       0       0       0
       0       0       0       0       0       0       0       0       0       0
       0       0       0       0       0       0       0       0       0       0
       0       0       0       0       0       0       0       0       0       0
       0       0       0       0       0       0       0       0       0       0
       0       0       0       0       0       0       0       0       0       0
       0       0       0       0       0       0       0       0       0       0
       0       0       0       0       0       0       0       0       0       0
       0       0       0       0       0       0       0       0       0       0
       0       0       0       0       0       0       0       0       0       0
       0       0       0       0       0       0       0       0       0       0
       0       0       0       0       0       0       0       0       0       0
       0       0       0       0       0       0       0       0       0       0
       0       0       0       0       0       0       0       0       0       0
       0       0       0       0       0       0       0       0       0       0
       0       0       0       0       0       0       0       0       0       0
       0       0       0       0       0       0       0       0       0       0
       0       0       0       0       0       0       0       0       0       0
       0       0       0       0       0       0       0       0       0       0
       0       0       0       0       0       0       0       0       0       0
       0       0       0       0       0       0       0       0       0       0
       0       0       0       0       0       0       0       0       0       0
       0       0       0       0       0       0       0       0       0       0
       0       0       0       0       0       0       0       0       0       0
       0       0       0       0       0       0       0       0       0       0
       0       0       0       0       0       0       0       0       0       0
       0       0       0       0       0       0       0       0       0       0
       0       0       0       0       0       0       0       0       0       0
       0       0       0       0       0       0       0       0       0       0
       0       0       0       0       0       0       0       0       0       0
       0       0       0       0       0       0       0       0       0       0
       0       0       0       0       0       0       0       0       0       0
       0       0       0       0       0       0       0       0       0       0
       0       0       0       0       0       0       0       0       0       0
       0       0       0       0       0       0       0       0       0       0
       0       0       0       0       0       0       0       0       0       0
       0       0       0       0       0       0       0       0       0       0
       0       0       0       0       0       0       0       0       0       0
       0       0       0       0       0       0       0       0       0       0
       0       0       0       0       0       0       0       0       0       0
       0       0       0       0       0       0       0       0       0       0
       0       0       0       0       0       0       0       0       0       0
       0       0       0       0       0       0       0       0       0       0
       0       0       0       0       0       0       0       0       0       0
       0       0       0       0       0       0       0       0       0       0
       0       0       0       0       0       0       0       0       0       0
       0       0       0       0       0       0       0       0       0       0
       0       0       0       0       0       0       0       0       0       0
       0       0       0       0       0       0       0       0       0       0
       0       0       0       0       0       0       0       0       0       0
       0       0       0       0       0       0       0       0       0       0
       0       0       0       0       0       0       0       0       0       0
       0       0       0       0       0       0       0       0       0       0
       0       0       0       0       0       0       0       0       0       0
       0       0       0       0       0       0       0       0       0       0
       0       0       0       0       0       0       0       0       0       0
       0       0       0       0       0       0       0       0       0       0
       0       0       0       0       0       0       0       0       0       0
       0       0       0       0       0       0       0       0       0       0
       0       0       0       0       0       0       0       0       0       0
       0       0       0       0       0       0       0       0       0       0
       0       0       0       0       0       0       0       0       0       0
       0       0       0       0       0       0       0       0       0       0
       0       0       0       0       0       0       0       0       0       0
       0       0       0       0       0       0       0       0       0       0
       0       0       0       0       0       0       0       0       0       0
       0       0       0       0       0       0       0       0       0       0
       0       0       0       0       0       0       0       0       0       0
       0       0       0       0       0       0       0       0       0       0
       0       0       0       0       0       0       0       0       0       0
       0       0       0       0       0       0       0       0       0       0
       0       0       0       0       0       0       0       0       0       0
       0       0       0       0       0       0       0       0       0       0
       0       0       0       0       0       0       0       0       0       0
       0       0       0       0       0       0       0       0       0       0
       0       0       0       0       0       0       0       0       0       0
       0       0       0       0       0       0       0       0       0       0
       0       0       0       0       0       0       0       0       0       0
       0       0       0       0       0       0       0       0       0       0
       0       0       0       0       0       0       0       0       0       0
       0       0       0       0       0       0       0       0       0       0
       0       0       0       0       0       0       0       0       0       0
       0       0       0       0       0       0       0       0       0       0
       0       0       0       0       0       0       0       0       0       0
       0       0       0       0       0       0       0       0       0       0
       0       0       0       0       0       0       0       0       0       0
       0       0       0       0       0       0       0       0       0       0
       0       0       0       0       0       0       0       0       0       0
       0       0       0       0       0       0       0       0       0       0
       0       0       0       0       0       0       0       0       0       0
       0       0       0       0       0       0       0       0       0       0
       0       0       0       0       0       0       0       0       0       0
       0       0       0       0       0       0       0       0       0       0
       0       0       0       0       0       0       0       0       0       0
       0       0       0       0       0       0       0       0       0       0
       0       0       0       0       0       0       0       0       0       0
       0       0       0       0       0       0       0       0       0       0
       0       0       0       0       0       0       0       0       0       0
       0       0       0       0       0       0       0       0       0       0
       0       0       0       0       0       0       0       0       0       0
       0       0       0       0       0       0       0       0       0       0
       0       0       0       0       0       0       0       0       0       0
       0       0       0       0       0       0       0       0       0       0
       0       0       0       0       0       0       0       0       0       0
       0       0       0       0       0       0       0       0       0       0
       0       0       0       0       0       0       0       0       0       0
       0       0       0       0       0       0       0       0       0       0
       0       0       0       0       0       0       0       0       0       0
       0       0       0       0       0       0       0       0       0       0
       0       0       0       0       0       0       0       0       0       0
       0       0       0       0       0       0       0       0       0       0
       0       0       0       0       0       0       0       0       0       0
       0       0       0       0       0       0       0       0       0       0
       0       0       0       0       0       0       0       0       0       0
       0       0       0       0       0       0       0       0       0       0
       0       0       0       0       0       0       0       0       0       0
       0       0       0       0       0       0       0       0       0       0
       0       0       0       0       0       0       0       0       0       0
       0       0       0       0       0       0       0       0       0       0
       0       0       0       0       0       0       0       0       0       0
       0       0       0       0       0       0       0       0       0       0
       0       0       0       0       0       0       0       0       0       0
       0       0       0       0       0       0       0       0       0       0
       0       0       0       0       0       0       0       0       0       0
       0       0       0       0       0       0       0       0       0       0
       0       0       0       0       0       0       0       0       0       0
       0       0       0       0       0       0       0       0       0       0
       0       0       0       0       0       0       0       0       0       0
       0       0       0       0       0       0       0       0       0       0
       0       0       0       0       0       0       0       0       0       0
       0       0       0       0       0       0       0       0       0       0
       0       0       0       0       0       0       0       0       0       0
       0       0       0       0       0       0       0       0       0       0
       0       0       0       0       0       0       0       0       0       0
       0       0       0       0       0       0       0       0       0       0
       0       0       0       0       0       0       0       0       0       0
       0       0       0       0       0       0       0       0       0       0
       0       0       0       0       0       0       0       0       0       0
       0       0       0       0       0       0       0       0       0       0
       0       0       0       0       0       0       0       0       0       0
       0       0       0       0       0       0       0       0       0       0
       0       0       0       0       0       0       0       0       0       0
       0       0       0       0       0       0       0       0       0       0
       0       0       0       0       0       0       0       0       0       0
       0       0       0       0       0       0       0       0       0       0
       0       0       0       0       0       0       0       0       0       0
       0       0       0       0       0       0       0       0       0       0
       0       0       0       0       0       0       0       0       0       0
       0       0       0       0       0       0       0       0       0       0
       0       0       0       0       0       0       0       0       0       0
       0       0       0       0       0       0       0       0       0       0
       0       0       0       0       0       0       0       0       0       0
       0       0       0       0       0       0       0       0       0       0
       0       0       0       0       0       0       0       0       0       0
       0       0       0       0       0       0       0       0       0       0
       0       0       0       0       0       0       0       0       0       0
       0       0       0       0       0       0       0       0       0       0
       0       0       0       0       0       0       0       0       0       0
       0       0       0       0       0       0       0       0       0       0
       0       0       0       0       0       0       0       0       0       0
       0       0       0       0       0       0       0       0       0       0
       0       0       0       0       0       0       0       0       0       0
       0       0       0       0       0       0       0       0       0       0
       0       0       0       0       0       0       0       0       0       0
       0       0       0       0       0       0       0       0       0       0
       0       0       0       0       0       0       0       0       0       0
       0       0       0       0       0       0       0       0       0       0
       0       0       0       0       0       0       0       0       0       0
       0       0       0       0       0       0       0       0       0       0
       0       0       0       0       0       0       0       0       0       0
       0       0       0       0       0       0       0       0       0       0
       0       0       0       0       0       0       0       0       0       0
       0       0       0       0       0       0       0       0       0       0
       0       0       0       0       0       0       0       0       0       0
       0       0       0       0       0       0       0       0       0       0
       0       0       0       0       0       0       0       0       0       0
       0       0       0       0       0       0       0       0       0       0
       0       0       0       0       0       0       0       0       0       0
       0       0       0       0       0       0       0       0       0       0
       0       0       0       0       0       0       0       0       0       0
       0       0       0       0       0       0       0       0       0       0
       0       0       0       0       0       0       0       0       0       0
       0       0       0       0       0       0       0       0       0       0
       0       0       0       0       0       0       0       0       0       0
       0       0       0       0       0       0       0       0       0       0
       0       0       0       0       0       0       0       0       0       0
       0       0       0       0       0       0       0       0       0       0
       0       0       0       0       0       0       0       0       0       0
       0       0       0       0       0       0       0       0       0       0
       0       0       0       0       0       0       0       0       0       0
       0       0       0       0       0       0       0       0       0       0
       0       0       0       0       0       0       0       0       0       0
       0       0       0       0       0       0       0       0       0       0
       0       0       0       0       0       0       0       0       0       0
       0       0       0       0       0       0       0       0       0       0
       0       0       0       0       0       0       0       0       0       0
       0       0       0       0       0       0       0       0       0       0
       0       0       0       0       0       0       0       0       0       0
       0       0       0       0       0       0       0       0       0       0
       0       0       0       0       0       0       0       0       0       0
       0       0       0       0       0       0       0       0       0       0
       0       0       0       0       0       0       0       0       0       0
       0       0       0       0       0       0       0       0       0       0
       0       0       0       0       0       0       0       0       0       0
       0       0       0       0       0       0       0       0       0       0
       0       0       0       0       0       0       0       0       0       0
       0       0       0       0       0       0       0       0       0       0
       0       0       0       0       0       0       0       0       0       0
       0       0       0       0       0       0       0       0       0       0
       0       0       0       0       0       0       0       0       0       0
       0       0       0       0       0       0       0       0       0       0
       0       0       0       0       0       0       0       0       0       0
       0       0       0       0       0       0       0       0       0       0
       0       0       0       0       0       0       0       0       0       0
       0       0       0       0       0       0       0       0       0       0
       0       0       0       0       0       0       0       0       0       0
       0       0       0       0       0       0       0       0       0       0
       0       0       0       0       0       0       0       0       0       0
       0       0       0       0       0       0       0       0       0       0
       0       0       0       0       0       0       0       0       0       0
       0       0       0       0       0       0       0       0       0       0
       0       0       0       0       0       0       0       0       0       0
       0       0       0       0       0       0       0       0       0       0
       0       0       0       0       0       0       0       0       0       0
       0       0       0       0       0       0       0       0       0       0
       0       0       0       0       0       0       0       0       0       0
       0       0       0       0       0       0       0       0       0       0
       0       0       0       0       0       0       0       0       0       0
       0       0       0       0       0       0       0       0       0       0
       0       0       0       0       0       0       0       0       0       0
       0       0       0       0       0       0       0       0       0       0
       0       0       0       0       0       0       0       0       0       0
       0       0       0       0       0       0       0       0       0       0
       0       0       0       0       0       0       0       0       0       0
       0       0       0       0       0       0       0       0       0       0
       0       0       0       0       0       0       0       0       0       0
       0       0       0       0       0       0       0       0       0       0
       0       0       0       0       0       0       0       0       0       0
       0       0       0       0       0       0       0       0       0       0
       0       0       0       0       0       0       0       0       0       0
       0       0       0       0       0       0       0       0       0       0
       0       0       0       0       0       0       0       0       0       0
       0       0       0       0       0       0       0       0       0       0
       0       0       0       0       0       0       0       0       0       0
       0       0       0       0       0       0       0       0       0       0
       0       0       0       0       0       0       0       0       0       0
       0       0       0       0       0       0       0       0       0       0
       0       0       0       0       0       0       0       0       0       0
       0       0       0       0       0       0       0       0       0       0
       0       0       0       0       0       0       0       0       0       0
       0       0       0       0       0       0       0       0       0       0
       0       0       0       0       0       0       0       0       0       0
       0       0       0       0       0       0       0       0       0       0
       0       0       0       0       0       0       0       0       0       0
       0       0       0       0       0       0       0       0       0       0
       0       0       0       0       0       0       0       0       0       0
       0       0       0       0       0       0       0       0       0       0
       0       0       0       0       0       0       0       0       0       0
       0       0       0       0       0       0       0       0       0       0
       0       0       0       0       0       0       0       0       0       0
       0       0       0       0       0       0       0       0       0       0
       0       0       0       0       0       0       0       0       0       0
       0       0       0       0       0       0       0       0       0       0
       0       0       0       0       0       0       0       0       0       0
       0       0       0       0       0       0       0       0       0       0
       0       0       0       0       0       0       0       0       0       0
       0       0       0       0       0       0       0       0       0       0
       0       0       0       0       0       0       0       0       0       0
       0       0       0       0       0       0       0       0       0       0
       0       0       0       0       0       0       0       0       0       0
       0       0       0       0       0       0       0       0       0       0
       0       0       0       0       0       0       0       0       0       0
       0       0       0       0       0       0       0       0       0       0
       0       0       0       0       0       0       0       0       0       0
       0       0       0       0       0       0       0       0       0       0
       0       0       0       0       0       0       0       0       0       0
       0       0       0       0       0       0       0       0       0       0
       0       0       0       0       0       0       0       0       0       0
       0       0       0       0       0       0       0       0       0       0
       0       0       0       0       0       0       0       0       0       0
       0       0       0       0       0       0       0       0       0       0
       0       0       0       0       0       0       0       0       0       0
       0       0       0       0       0       0       0       0       0       0
       0       0       0       0       0       0       0       0       0       0
       0       0       0       0       0       0       0       0       0       0
       0       0       0       0       0       0       0       0       0       0
       0       0       0       0       0       0       0       0       0       0
       0       0       0       0       0       0       0       0       0       0
       0       0       0       0       0       0       0       0       0       0
       0       0       0       0       0       0       0       0       0       0
       0       0       0       0       0       0       0       0       0       0
       0       0       0       0       0       0       0       0       0       0
       0       0       0       0       0       0       0       0       0       0
       0       0       0       0       0       0       0       0       0       0
       0       0       0       0       0       0       0       0       0       0
       0       0       0       0       0       0       0       0       0       0
       0       0       0       0       0       0       0       0       0       0
       0       0       0       0       0       0       0       0       0       0
       0       0       0       0       0       0       0       0       0       0
       0       0       0       0       0       0       0       0       0       0
       0       0       0       0       0       0       0       0       0       0
       0       0       0       0       0       0       0       0       0       0
       0       0       0       0       0       0       0       0       0       0
       0       0       0       0       0       0       0       0       0       0
       0       0       0       0       0       0       0       0       0       0
       0       0       0       0       0       0       0       0       0       0
       0       0       0       0       0       0       0       0       0       0
       0       0       0       0       0       0       0       0       0       0
       0       0       0       0       0       0       0       0       0       0
       0       0       0       0       0       0       0       0       0       0
       0       0       0       0       0       0       0       0       0       0
       0       0       0       0       0       0       0       0       0       0
       0       0       0       0       0       0       0       0       0       0
       0       0       0       0       0       0       0       0       0       0
       0       0       0       0       0       0       0       0       0       0
       0       0       0       0       0       0       0       0       0       0
       0       0       0       0       0       0       0       0       0       0
       0       0       0       0       0       0       0       0       0       0
       0       0       0       0       0       0       0       0       0       0
       0       0       0       0       0       0       0       0       0       0
       0       0       0       0       0       0       0       0       0       0
       0       0       0       0       0       0       0       0       0       0
       0       0       0       0       0       0       0       0       0       0
       0       0       0       0       0       0       0       0       0       0
       0       0       0       0       0       0       0       0       0       0
       0       0       0       0       0       0       0       0       0       0
       0       0       0       0       0       0       0       0       0       0
       0       0       0       0       0       0       0       0       0       0
       0       0       0       0       0       0       0       0       0       0
       0       0       0       0       0       0       0       0       0       0
       0       0       0       0       0       0       0       0       0       0
       0       0       0       0       0       0       0       0       0       0
       0       0       0       0       0       0       0       0       0       0
       0       0       0       0       0       0       0       0       0       0
       0       0       0       0       0       0       0       0       0       0
       0       0       0       0       0       0       0       0       0       0
       0       0       0       0       0       0       0       0       0       0
       0       0       0       0       0       0       0       0       0       0
       0       0       0       0       0       0       0       0       0       0
       0       0       0       0       0       0       0       0       0       0
       0       0       0       0       0       0       0       0       0       0
       0       0       0       0       0       0       0       0       0       0
       0       0       0       0       0       0       0       0       0       0
       0       0       0       0       0       0       0       0       0       0
       0       0       0       0       0       0       0       0       0       0
       0       0       0       0       0       0       0       0       0       0
       0       0       0       0       0       0       0       0       0       0
       0       0       0       0       0       0       0       0       0       0
       0       0       0       0       0       0       0       0       0       0
       0       0       0       0       0       0       0       0       0       0
       0       0       0       0       0       0       0       0       0       0
       0       0       0       0       0       0       0       0       0       0
       0       0       0       0       0       0       0       0       0       0
       0       0       0       0       0       0       0       0       0       0
       0       0       0       0       0       0       0       0       0       0
       0       0       0       0       0       0       0       0       0       0
       0       0       0       0       0       0       0       0       0       0
       0       0       0       0       0       0       0       0       0       0
       0       0       0       0       0       0       0       0       0       0
       0       0       0       0       0       0       0       0       0       0
       0       0       0       0       0       0       0       0       0       0
       0       0       0       0       0       0       0       0       0       0
       0       0       0       0       0       0       0       0       0       0
       0       0       0       0       0       0       0       0       0       0
       0       0       0       0       0       0       0       0       0       0
       0       0       0       0       0       0       0       0       0       0
       0       0       0       0       0       0       0       0       0       0
       0       0       0       0       0       0       0       0       0       0
       0       0       0       0       0       0       0       0       0       0
       0       0       0       0       0       0       0       0       0       0
       0       0       0       0       0       0       0       0       0       0
       0       0       0       0       0       0       0       0       0       0
       0       0       0       0       0       0       0       0       0       0
       0       0       0       0       0       0       0       0       0       0
       0       0       0       0       0       0       0       0       0       0
       0       0       0       0       0       0       0       0       0       0
       0       0       0       0       0       0       0       0       0       0
       0       0       0       0       0       0       0       0       0       0
       0       0       0       0       0       0       0       0       0       0
       0       0       0       0       0       0       0       0       0       0
       0       0       0       0       0       0       0       0       0       0
       0       0       0       0       0       0       0       0       0       0
       0       0       0       0       0       0       0       0       0       0
       0       0       0       0       0       0       0       0       0       0
       0       0       0       0       0       0       0       0       0       0
       0       0       0       0       0       0       0       0       0       0
       0       0       0       0       0       0       0       0       0       0
       0       0       0       0       0       0       0       0       0       0
       0       0       0       0       0       0       0       0       0       0
       0       0       0       0       0       0       0       0       0       0
       0       0       0       0       0       0       0       0       0       0
       0       0       0       0       0       0       0       0       0       0
       0       0       0       0       0       0       0       0       0       0
       0       0       0       0       0       0       0       0       0       0
       0       0       0       0       0       0       0       0       0       0
       0       0       0       0       0       0       0       0       0       0
       0       0       0       0       0       0       0       0       0       0
       0       0       0       0       0       0       0       0       0       0
       0       0       0       0       0       0       0       0       0       0
       0       0       0       0       0       0       0       0       0       0
       0       0       0       0       0       0       0       0       0       0
       0       0       0       0       0       0       0       0       0       0
       0       0       0       0       0       0       0       0       0       0
       0       0       0       0       0       0       0       0       0       0
       0       0       0       0       0       0       0       0       0       0
       0       0       0       0       0       0       0       0       0       0
       0       0       0       0       0       0       0       0       0       0
       0       0       0       0       0       0       0       0       0       0
       0       0       0       0       0       0       0       0       0       0
       0       0       0       0       0       0       0       0       0       0
       0       0       0       0       0       0       0       0       0       0
       0       0       0       0       0       0       0       0       0       0
       0       0       0       0       0       0       0       0       0       0
       0       0       0       0       0       0       0       0       0       0
       0       0       0       0       0       0       0       0       0       0
       0       0       0       0       0       0       0       0       0       0
       0       0       0       0       0       0       0       0       0       0
       0       0       0       0       0       0       0       0       0       0
       0       0       0       0       0       0       0       0       0       0
       0       0       0       0       0       0       0       0       0       0
       0       0       0       0       0       0       0       0       0       0
       0       0       0       0       0       0       0       0       0       0
       0       0       0       0       0       0       0       0       0       0
       0       0       0       0       0       0       0       0       0       0
       0       0       0       0       0       0       0       0       0       0
       0       0       0       0       0       0       0       0       0       0
       0       0       0       0       0       0       0       0       0       0
       0       0       0       0       0       0       0       0       0       0
       0       0       0       0       0       0       0       0       0       0
       0       0       0       0       0       0       0       0       0       0
       0       0       0       0       0       0       0       0       0       0
       0       0       0       0       0       0       0       0       0       0
       0       0       0       0       0       0       0       0       0       0
       0       0       0       0       0       0       0       0       0       0
       0       0       0       0       0       0       0       0       0       0
       0       0       0       0       0       0       0       0       0       0
       0       0       0       0       0       0       0       0       0       0
       0       0       0       0       0       0       0       0       0       0
       0       0       0       0       0       0       0       0       0       0
       0       0       0       0       0       0       0       0       0       0
       0       0       0       0       0       0       0       0       0       0
       0       0       0       0       0       0       0       0       0       0
       0       0       0       0       0       0       0       0       0       0
       0       0       0       0       0       0       0       0       0       0
       0       0       0       0       0       0       0       0       0       0
       0       0       0       0       0       0       0       0       0       0
       0       0       0       0       0       0       0       0       0       0
       0       0       0       0       0       0       0       0       0       0
       0       0       0       0       0       0       0       0       0       0
       0       0       0       0       0       0       0       0       0       0
       0       0       0       0       0       0       0       0       0       0
       0       0       0       0       0       0       0       0       0       0
       0       0       0       0       0       0       0       0       0       0
       0       0       0       0       0       0       0       0       0       0
       0       0       0       0       0       0       0       0       0       0
       0       0       0       0       0       0       0       0       0       0
       0       0       0       0       0       0       0       0       0       0
       0       0       0       0       0       0       0       0       0       0
       0       0       0       0       0       0       0       0       0       0
       0       0       0       0       0       0       0       0       0       0
       0       0       0       0       0       0       0       0       0       0
       0       0       0       0       0       0       0       0       0       0
       0       0       0       0       0       0       0       0       0       0
       0       0       0       0       0       0       0       0       0       0
       0       0       0       0       0       0       0       0       0       0
       0       0       0       0       0       0       0       0       0       0
       0       0       0       0       0       0       0       0       0       0
       0       0       0       0       0       0       0       0       0       0
       0       0       0       0       0       0       0       0       0       0
       0       0       0       0       0       0       0       0       0       0
       0       0       0       0       0       0       0       0       0       0
       0       0       0       0       0       0       0       0       0       0
       0       0       0       0       0       0       0       0       0       0
       0       0       0       0       0       0       0       0       0       0
       0       0       0       0       0       0       0       0       0       0
       0       0       0       0       0       0       0       0       0       0
       0       0       0       0       0       0       0       0       0       0
       0       0       0       0       0       0       0       0       0       0
       0       0       0       0       0       0       0       0       0       0
       0       0       0       0       0       0       0       0       0       0
       0       0       0       0       0       0       0       0       0       0
       0       0       0       0       0       0       0       0       0       0
       0       0       0       0       0       0       0       0       0       0
       0       0       0       0       0       0       0       0       0       0
       0       0       0       0       0       0       0       0       0       0
       0       0       0       0       0       0       0       0       0       0
       0       0       0       0       0       0       0       0       0       0
       0       0       0       0       0       0       0       0       0       0
       0       0       0       0       0       0       0       0       0       0
       0       0       0       0       0       0       0       0       0       0
       0       0       0       0       0       0       0       0       0       0
       0       0       0       0       0       0       0       0       0       0
       0       0       0       0       0       0       0       0       0       0
       0       0       0       0       0       0       0       0       0       0
       0       0       0       0       0       0       0       0       0       0
       0       0       0       0       0       0       0       0       0       0
       0       0       0       0       0       0       0       0       0       0
       0       0       0       0       0       0       0       0       0       0
       0       0       0       0       0       0       0       0       0       0
       0       0       0       0       0       0       0       0       0       0
       0       0       0       0       0       0       0       0       0       0
       0       0       0       0       0       0       0       0       0       0
       0       0       0       0       0       0       0       0       0       0
       0       0       0       0       0       0       0       0       0       0
       0       0       0       0       0       0       0       0       0       0
       0       0       0       0       0       0       0       0       0       0
       0       0       0       0       0       0       0       0       0       0
       0       0       0       0       0       0       0       0       0       0
       0       0       0       0       0       0       0       0       0       0
       0       0       0       0       0       0       0       0       0       0
       0       0       0       0       0       0       0       0       0       0
       0       0       0       0       0       0       0       0       0       0
       0       0       0       0       0       0       0       0       0       0
       0       0       0       0       0       0       0       0       0       0
       0       0       0       0       0       0       0       0       0       0
       0       0       0       0       0       0       0       0       0       0
       0       0       0       0       0       0       0       0       0       0
       0       0       0       0       0       0       0       0       0       0
       0       0       0       0       0       0       0       0       0       0
       0       0       0       0       0       0       0       0       0       0
       0       0       0       0       0       0       0       0       0       0
       0       0       0       0       0       0       0       0       0       0
       0       0       0       0       0       0       0       0       0       0
       0       0       0       0       0       0       0       0       0       0
       0       0       0       0       0       0       0       0       0       0
       0       0       0       0       0       0       0       0       0       0
       0       0       0       0       0       0       0       0       0       0
       0       0       0       0       0       0       0       0       0       0
       0       0       0       0       0       0       0       0       0       0
       0       0       0       0       0       0       0       0       0       0
       0       0       0       0       0       0       0       0       0       0
       0       0       0       0       0       0       0       0       0       0
       0       0       0       0       0       0       0       0       0       0
       0       0       0       0       0       0       0       0       0       0
       0       0       0       0       0       0       0       0       0       0
       0       0       0       0       0       0       0       0       0       0
       0       0       0       0       0       0       0       0       0       0
       0       0       0       0       0       0       0       0       0       0
       0       0       0       0       0       0       0       0       0       0
       0       0       0       0       0       0       0       0       0       0
       0       0       0       0       0       0       0       0       0       0
       0       0       0       0       0       0       0       0       0       0
       0       0       0       0       0       0       0       0       0       0
       0       0       0       0       0       0       0       0       0       0
       0       0       0       0       0       0       0       0       0       0
       0       0       0       0       0       0       0       0       0       0
       0       0       0       0       0       0       0       0       0       0
       0       0       0       0       0       0       0       0       0       0
       0       0       0       0       0       0       0       0       0       0
       0       0       0       0       0       0       0       0       0       0
       0       0       0       0       0       0       0       0       0       0
       0       0       0       0       0       0       0       0       0       0
       0       0       0       0       0       0       0       0       0       0
       0       0       0       0       0       0       0       0       0       0
       0       0       0       0       0       0       0       0       0       0
       0       0       0       0       0       0       0       0       0       0
       0       0       0       0       0       0       0       0       0       0
       0       0       0       0       0       0       0       0       0       0
       0       0       0       0       0       0       0       0       0       0
       0       0       0       0       0       0       0       0       0       0
       0       0       0       0       0       0       0       0       0       0
       0       0       0       0       0       0       0       0       0       0
       0       0       0       0       0       0       0       0       0       0
       0       0       0       0       0       0       0       0       0       0
       0       0       0       0       0       0       0       0       0       0
       0       0       0       0       0       0       0       0       0       0
       0       0       0       0       0       0       0       0       0       0
       0       0       0       0       0       0       0       0       0       0
       0       0       0       0       0       0       0       0       0       0
       0       0       0       0       0       0       0       0       0       0
       0       0       0       0       0       0       0       0       0       0
       0       0       0       0       0       0       0       0       0       0
       0       0       0       0       0       0       0       0       0       0
       0       0       0       0       0       0       0       0       0       0
       0       0       0       0       0       0       0       0       0       0
       0       0       0       0       0       0       0       0       0       0
       0       0       0       0       0       0       0       0       0       0
       0       0       0       0       0       0       0       0       0       0
       0       0       0       0       0       0       0       0       0       0
       0       0       0       0       0       0       0       0       0       0
       0       0       0       0       0       0       0       0       0       0
       0       0       0       0       0       0       0       0       0       0
       0       0       0       0       0       0       0       0       0       0
       0       0       0       0       0       0       0       0       0       0
       0       0       0       0       0       0       0       0       0       0
       0       0       0       0       0       0       0       0       0       0
       0       0       0       0       0       0       0       0       0       0
       0       0       0       0       0       0       0       0       0       0
       0       0       0       0       0       0       0       0       0       0
       0       0       0       0       0       0       0       0       0       0
       0       0       0       0       0       0       0       0       0       0
       0       0       0       0       0       0       0       0       0       0
       0       0       0       0       0       0       0       0       0       0
       0       0       0       0       0       0       0       0       0       0
       0       0       0       0       0       0       0       0       0       0
       0       0       0       0       0       0       0       0       0       0
       0       0       0       0       0       0       0       0       0       0
       0       0       0       0       0       0       0       0       0       0
       0       0       0       0       0       0       0       0       0       0
       0       0       0       0       0       0       0       0       0       0
       0       0       0       0       0       0       0       0       0       0
       0       0       0       0       0       0       0       0       0       0
       0       0       0       0       0       0       0       0       0       0
       0       0       0       0       0       0       0       0       0       0
       0       0       0       0       0       0       0       0       0       0
       0       0       0       0       0       0       0       0       0       0
       0       0       0       0       0       0       0       0       0       0
       0       0       0       0       0       0       0       0       0       0
       0       0       0       0       0       0       0       0       0       0
       0       0       0       0       0       0       0       0       0       0
       0       0       0       0       0       0       0       0       0       0
       0       0       0       0       0       0       0       0       0       0
       0       0       0       0       0       0       0       0       0       0
       0       0       0       0       0       0       0       0       0       0
       0       0       0       0       0       0       0       0       0       0
       0       0       0       0       0       0       0       0       0       0
       0       0       0       0       0       0       0       0       0       0
       0       0       0       0       0       0       0       0       0       0
       0       0       0       0       0       0       0       0       0       0
       0       0       0       0       0       0       0       0       0       0
       0       0       0       0       0       0       0       0       0       0
       0       0       0       0       0       0       0       0       0       0
       0       0       0       0       0       0       0       0       0       0
       0       0       0       0       0       0       0       0       0       0
       0       0       0       0       0       0       0       0       0       0
       0       0       0       0       0       0       0       0       0       0
       0       0       0       0       0       0       0       0       0       0
       0       0       0       0       0       0       0       0       0       0
       0       0       0       0       0       0       0       0       0       0
       0       0       0       0       0       0       0       0       0       0
       0       0       0       0       0       0       0       0       0       0
       0       0       0       0       0       0       0       0       0       0
       0       0       0       0       0       0       0       0       0       0
       0       0       0       0       0       0       0       0       0       0
       0       0       0       0       0       0       0       0       0       0
       0       0       0       0       0       0       0       0       0       0
       0       0       0       0       0       0       0       0       0       0
       0       0       0       0       0       0       0       0       0       0
       0       0       0       0       0       0       0       0       0       0
       0       0       0       0       0       0       0       0       0       0
       0       0       0       0       0       0       0       0       0       0
       0       0       0       0       0       0       0       0       0       0
       0       0       0       0       0       0       0       0       0       0
       0       0       0       0       0       0       0       0       0       0
       0       0       0       0       0       0       0       0       0       0
       0       0       0       0       0       0       0       0       0       0
       0       0       0       0       0       0       0       0       0       0
       0       0       0       0       0       0       0       0       0       0
       0       0       0       0       0       0       0       0       0       0
       0       0       0       0       0       0       0       0       0       0
       0       0       0       0       0       0       0       0       0       0
       0       0       0       0       0       0       0       0       0       0
       0       0       0       0       0       0       0       0       0       0
       0       0       0       0       0       0       0       0       0       0
       0       0       0       0       0       0       0       0       0       0
       0       0       0       0       0       0       0       0       0       0
       0       0       0       0       0       0       0       0       0       0
       0       0       0       0       0       0       0       0       0       0
       0       0       0       0       0       0       0       0       0       0
       0       0       0       0       0       0       0       0       0       0
       0       0       0       0       0       0       0       0       0       0
       0       0       0       0       0       0       0       0       0       0
       0       0       0       0       0       0       0       0       0       0
       0       0       0       0       0       0       0       0       0       0
       0       0       0       0       0       0       0       0       0       0
       0       0       0       0       0       0       0       0       0       0
       0       0       0       0       0       0       0       0       0       0
       0       0       0       0       0       0       0       0       0       0
       0       0       0       0       0       0       0       0       0       0
       0       0       0       0       0       0       0       0       0       0
       0       0       0       0       0       0       0       0       0       0
       0       0       0       0       0       0       0       0       0       0
       0       0       0       0       0       0       0       0       0       0
       0       0       0       0       0       0       0       0       0       0
       0       0       0       0       0       0       0       0       0       0
       0       0       0       0       0       0       0       0       0       0
       0       0       0       0       0       0       0       0       0       0
       0       0       0       0       0       0       0       0       0       0
       0       0       0       0       0       0       0       0       0       0
       0       0       0       0       0       0       0       0       0       0
       0       0       0       0       0       0       0       0       0       0
       0       0       0       0       0       0       0       0       0       0
       0       0       0       0       0       0       0       0       0       0
       0       0       0       0       0       0       0       0       0       0
       0       0       0       0       0       0       0       0       0       0
       0       0       0       0       0       0       0       0       0       0
       0       0       0       0       0       0       0       0       0       0
       0       0       0       0       0       0       0       0       0       0
       0       0       0       0       0       0       0       0       0       0
       0       0       0       0       0       0       0       0       0       0
       0       0       0       0       0       0       0       0       0       0
       0       0       0       0       0       0       0       0       0       0
       0       0       0       0       0       0       0       0       0       0
       0       0       0       0       0       0       0       0       0       0
       0       0       0       0       0       0       0       0       0       0
       0       0       0       0       0       0       0       0       0       0
       0       0       0       0       0       0       0       0       0       0
       0       0       0       0       0       0       0       0       0       0
       0       0       0       0       0       0       0       0       0       0
       0       0       0       0       0       0       0       0       0       0
       0       0       0       0       0       0       0       0       0       0
       0       0       0       0       0       0       0       0       0       0
       0       0       0       0       0       0       0       0       0       0
       0       0       0       0       0       0       0       0       0       0
       0       0       0       0       0       0       0       0       0       0
       0       0       0       0       0       0       0       0       0       0
       0       0       0       0       0       0       0       0       0       0
       0       0       0       0       0       0       0       0       0       0
       0       0       0       0       0       0       0       0       0       0
       0       0       0       0       0       0       0       0       0       0
       0       0       0       0       0       0       0       0       0       0
       0       0       0       0       0       0       0       0       0       0
       0       0       0       0       0       0       0       0       0       0
       0       0       0       0       0       0       0       0       0       0
       0       0       0       0       0       0       0       0       0       0
       0       0       0       0       0       0       0       0       0       0
       0       0       0       0       0       0       0       0       0       0
       0       0       0       0       0       0       0       0       0       0
       0       0       0       0       0       0       0       0       0       0
       0       0       0       0       0       0       0       0       0       0
       0       0       0       0       0       0       0       0       0       0
       0       0       0       0       0       0       0       0       0       0
       0       0       0       0       0       0       0       0       0       0
       0       0       0       0       0       0       0       0       0       0
       0       0       0       0       0       0       0       0       0       0
       0       0       0       0       0       0       0       0       0       0
       0       0       0       0       0       0       0       0       0       0
       0       0       0       0       0       0       0       0       0       0
       0       0       0       0       0       0       0       0       0       0
       0       0       0       0       0       0       0       0       0       0
       0       0       0       0       0       0       0       0       0       0
       0       0       0       0       0       0       0       0       0       0
       0       0       0       0       0       0       0       0       0       0
       0       0       0       0       0       0       0       0       0       0
       0       0       0       0       0       0       0       0       0       0
       0       0       0       0       0       0       0       0       0       0
       0       0       0       0       0       0       0       0       0       0
       0       0       0       0       0       0       0       0       0       0
       0       0       0       0       0       0       0       0       0       0
       0       0       0       0       0       0       0       0       0       0
       0       0       0       0       0       0       0       0       0       0
       0       0       0       0       0       0       0       0       0       0
       0       0       0       0       0       0       0       0       0       0
       0       0       0       0       0       0       0       0       0       0
       0       0       0       0       0       0       0       0       0       0
       0       0       0       0       0       0       0       0       0       0
       0       0       0       0       0       0       0       0       0       0
       0       0       0       0       0       0       0       0       0       0
       0       0       0       0       0       0       0       0       0       0
       0       0       0       0       0       0       0       0       0       0
       0       0       0       0       0       0       0       0       0       0
       0       0       0       0       0       0       0       0       0       0
       0       0       0       0       0       0       0       0       0       0
       0       0       0       0       0       0       0       0       0       0
       0       0       0       0       0       0       0       0       0       0
       0       0       0       0       0       0       0       0       0       0
       0       0       0       0       0       0       0       0       0       0
       0       0       0       0       0       0       0       0       0       0
       0       0       0       0       0       0       0       0       0       0
       0       0       0       0       0       0       0       0       0       0
       0       0       0       0       0       0       0       0       0       0
       0       0       0       0       0       0       0       0       0       0
       0       0       0       0       0       0       0       0       0       0
       0       0       0       0       0       0       0       0       0       0
       0       0       0       0       0       0       0       0       0       0
       0       0       0       0       0       0       0       0       0       0
       0       0       0       0       0       0       0       0       0       0
       0       0       0       0       0       0       0       0       0       0
       0       0       0       0       0       0       0       0       0       0
       0       0       0       0       0       0       0       0       0       0
       0       0       0       0       0       0       0       0       0       0
       0       0       0       0       0       0       0       0       0       0
       0       0       0       0       0       0       0       0       0       0
       0       0       0       0       0       0       0       0       0       0
       0       0       0       0       0       0       0       0       0       0
       0       0       0       0       0       0       0       0       0       0
       0       0       0       0       0       0       0       0       0       0
       0       0       0       0       0       0       0       0       0       0
       0       0       0       0       0       0       0       0       0       0
       0       0       0       0       0       0       0       0       0       0
       0       0       0       0       0       0       0       0       0       0
       0       0       0       0       0       0       0       0       0       0
       0       0       0       0       0       0       0       0       0       0
       0       0       0       0       0       0       0       0       0       0
       0       0       0       0       0       0       0       0       0       0
       0       0       0       0       0       0       0       0       0       0
       0       0       0       0       0       0       0       0       0       0
       0       0       0       0       0       0       0       0       0       0
       0       0       0       0       0       0       0       0       0       0
       0       0       0       0       0       0       0       0       0       0
       0       0       0       0       0       0       0       0       0       0
       0       0       0       0       0       0       0       0       0       0
       0       0       0       0       0       0       0       0       0       0
       0       0       0       0       0       0       0       0       0       0
       0       0       0       0       0       0       0       0       0       0
       0       0       0       0       0       0       0       0       0       0
       0       0       0       0       0       0       0       0       0       0
       0       0       0       0       0       0       0       0       0       0
       0       0       0       0       0       0       0       0       0       0
       0       0       0       0       0       0       0       0       0       0
       0       0       0       0       0       0       0       0       0       0
       0       0       0       0       0       0       0       0       0       0
       0       0       0       0       0       0       0       0       0       0
       0       0       0       0       0       0       0       0       0       0
       0       0       0       0       0       0       0       0       0       0
       0       0       0       0       0       0       0       0       0       0
       0       0       0       0       0       0       0       0       0       0
       0       0       0       0       0       0       0       0       0       0
       0       0       0       0       0       0       0       0       0       0
       0       0       0       0       0       0       0       0       0       0
       0       0       0       0       0       0       0       0       0       0
       0       0       0       0       0       0       0       0       0       0
       0       0       0       0       0       0       0       0       0       0
       0       0       0       0       0       0       0       0       0       0
       0       0       0       0       0       0       0       0       0       0
       0       0       0       0       0       0       0       0       0       0
       0       0       0       0       0       0       0       0       0       0
       0       0       0       0       0       0       0       0       0       0
       0       0       0       0       0       0       0       0       0       0
       0       0       0       0       0       0       0       0       0       0
       0       0       0       0       0       0       0       0       0       0
       0       0       0       0       0       0       0       0       0       0
       0       0       0       0       0       0       0       0       0       0
       0       0       0       0       0       0       0       0       0       0
       0       0       0       0       0       0       0       0       0       0
       0       0       0       0       0       0       0       0       0       0
       0       0       0       0       0       0       0       0       0       0
       0       0       0       0       0       0       0       0       0       0
       0       0       0       0       0       0       0       0       0       0
       0       0       0       0       0       0       0       0       0       0
       0       0       0       0       0       0       0       0       0       0
       0       0       0       0       0       0       0       0       0       0
       0       0       0       0       0       0       0       0       0       0
       0       0       0       0       0       0       0       0       0       0
       0       0       0       0       0       0       0       0       0       0
       0       0       0       0       0       0       0       0       0       0
       0       0       0       0       0       0       0       0       0       0
       0       0       0       0       0       0       0       0       0       0
       0       0       0       0       0       0       0       0       0       0
       0       0       0       0       0       0       0       0       0       0
       0       0       0       0       0       0       0       0       0       0
       0       0       0       0       0       0       0       0       0       0
       0       0       0       0       0       0       0       0       0       0
       0       0       0       0       0       0       0       0       0       0
       0       0       0       0       0       0       0       0       0       0
       0       0       0       0       0       0       0       0       0       0
       0       0       0       0       0       0       0       0       0       0
       0       0       0       0       0       0       0       0       0       0
       0       0       0       0       0       0       0       0       0       0
       0       0       0       0       0       0       0       0       0       0
       0       0       0       0       0       0       0       0       0       0
       0       0       0       0       0       0       0       0       0       0
       0       0       0       0       0       0       0       0       0       0
       0       0       0       0       0       0       0       0       0       0
       0       0       0       0       0       0       0       0       0       0
       0       0       0       0       0       0       0       0       0       0
       0       0       0       0       0       0       0       0       0       0
       0       0       0       0       0       0       0       0       0       0
       0       0       0       0       0       0       0       0       0       0
       0       0       0       0       0       0       0       0       0       0
       0       0       0       0       0       0       0       0       0       0
       0       0       0       0       0       0       0       0       0       0
       0       0       0       0       0       0       0       0       0       0
       0       0       0       0       0       0       0       0       0       0
       0       0       0       0       0       0       0       0       0       0
       0       0       0       0       0       0       0       0       0       0
       0       0       0       0       0       0       0       0       0       0
       0       0       0       0       0       0       0       0       0       0
       0       0       0       0       0       0       0       0       0       0
       0       0       0       0       0       0       0       0       0       0
       0       0       0       0       0       0       0       0       0       0
       0       0       0       0       0       0       0       0       0       0
       0       0       0       0       0       0       0       0       0       0
       0       0       0       0       0       0       0       0       0       0
       0       0       0       0       0       0       0       0       0       0
       0       0       0       0       0       0       0       0       0       0
       0       0       0       0       0       0       0       0       0       0
       0       0       0       0       0       0       0       0       0       0
       0       0       0       0       0       0       0       0       0       0
       0       0       0       0       0       0       0       0       0       0
       0       0       0       0       0       0       0       0       0       0
       0       0       0       0       0       0       0       0       0       0
       0       0       0       0       0       0       0       0       0       0
       0       0       0       0       0       0       0       0       0       0
       0       0       0       0       0       0       0       0       0       0
       0       0       0       0       0       0       0       0       0       0
       0       0       0       0       0       0       0       0       0       0
       0       0       0       0       0       0       0       0       0       0
       0       0       0       0       0       0       0       0       0       0
       0       0       0       0       0       0       0       0       0       0
       0       0       0       0       0       0       0       0       0       0
       0       0       0       0       0       0       0       0       0       0
       0       0       0       0       0       0       0       0       0       0
       0       0       0       0       0       0       0       0       0       0
       0       0       0       0       0       0       0       0       0       0
       0       0       0       0       0       0       0       0       0       0
       0       0       0       0       0       0       0       0       0       0
       0       0       0       0       0       0       0       0       0       0
       0       0       0       0       0       0       0       0       0       0
       0       0       0       0       0       0       0       0       0       0
       0       0       0       0       0       0       0       0       0       0
       0       0       0       0       0       0       0       0       0       0
       0       0       0       0       0       0       0       0       0       0
       0       0       0       0       0       0       0       0       0       0
       0       0       0       0       0       0       0       0       0       0
       0       0       0       0       0       0       0       0       0       0
       0       0       0       0       0       0       0       0       0       0
       0       0       0       0       0       0       0       0       0       0
       0       0       0       0       0       0       0       0       0       0
       0       0       0       0       0       0       0       0       0       0
       0       0       0       0       0       0       0       0       0       0
       0       0       0       0       0       0       0       0       0       0
       0       0       0       0       0       0       0       0       0       0
       0       0       0       0       0       0       0       0       0       0
       0       0       0       0       0       0       0       0       0       0
       0       0       0       0       0       0       0       0       0       0
       0       0       0       0       0       0       0       0       0       0
       0       0       0       0       0       0       0       0       0       0
       0       0       0       0       0       0       0       0       0       0
       0       0       0       0       0       0       0       0       0       0
       0       0       0       0       0       0       0       0       0       0
       0       0       0       0       0       0       0       0       0       0
       0       0       0       0       0       0       0       0       0       0
       0       0       0       0       0       0       0       0       0       0
       0       0       0       0       0       0       0       0       0       0
       0       0       0       0       0       0       0       0       0       0
       0       0       0       0       0       0       0       0       0       0
       0       0       0       0       0       0       0       0       0       0
       0       0       0       0       0       0       0       0       0       0
       0       0       0       0       0       0       0       0       0       0
       0       0       0       0       0       0       0       0       0       0
       0       0       0       0       0       0       0       0       0       0
       0       0       0       0       0       0       0       0       0       0
       0       0       0       0       0       0       0       0       0       0
       0       0       0       0       0       0       0       0       0       0
       0       0       0       0       0       0       0       0       0       0
       0       0       0       0       0       0       0       0       0       0
       0       0       0       0       0       0       0       0       0       0
       0       0       0       0       0       0       0       0       0       0
       0       0       0       0       0       0       0       0       0       0
       0       0       0       0       0       0       0       0       0       0
       0       0       0       0       0       0       0       0       0       0
       0       0       0       0       0       0       0       0       0       0
       0       0       0       0       0       0       0       0       0       0
       0       0       0       0       0       0       0       0       0       0
       0       0       0       0       0       0       0       0       0       0
       0       0       0       0       0       0       0       0       0       0
       0       0       0       0       0       0       0       0       0       0
       0       0       0       0       0       0       0       0       0       0
       0       0       0       0       0       0       0       0       0       0
       0       0       0       0       0       0       0       0       0       0
       0       0       0       0       0       0       0       0       0       0
       0       0       0       0       0       0       0       0       0       0
       0       0       0       0       0       0       0       0       0       0
       0       0       0       0       0       0       0       0       0       0
       0       0       0       0       0       0       0       0       0       0
       0       0       0       0       0       0       0       0       0       0
       0       0       0       0       0       0       0       0       0       0
       0       0       0       0       0       0       0       0       0       0
       0       0       0       0       0       0       0       0       0       0
       0       0       0       0       0       0       0       0       0       0
       0       0       0       0       0       0       0       0       0       0
       0       0       0       0       0       0       0       0       0       0
       0       0       0       0       0       0       0       0       0       0
       0       0       0       0       0       0       0       0       0       0
       0       0       0       0       0       0       0       0       0       0
       0       0       0       0       0       0       0       0       0       0
       0       0       0       0       0       0       0       0       0       0
       0       0       0       0       0       0       0       0       0       0
       0       0       0       0       0       0       0       0       0       0
       0       0       0       0       0       0       0       0       0       0
       0       0       0       0       0       0       0       0       0       0
       0       0       0       0       0       0       0       0       0       0
       0       0       0       0       0       0       0       0       0       0
       0       0       0       0       0       0       0       0       0       0
       0       0       0       0       0       0       0       0       0       0
       0       0       0       0       0       0       0       0       0       0
       0       0       0       0       0       0       0       0       0       0
       0       0       0       0       0       0       0       0       0       0
       0       0       0       0       0       0       0       0       0       0
       0       0       0       0       0       0       0       0       0       0
       0       0       0       0       0       0       0       0       0       0
       0       0       0       0       0       0       0       0       0       0
       0       0       0       0       0       0       0       0       0       0
       0       0       0       0       0       0       0       0       0       0
       0       0       0       0       0       0       0       0       0       0
       0       0       0       0       0       0       0       0       0       0
       0       0       0       0       0       0       0       0       0       0
       0       0       0       0       0       0       0       0       0       0
       0       0       0       0       0       0       0       0       0       0
       0       0       0       0       0       0       0       0       0       0
       0       0       0       0       0       0       0       0       0       0
       0       0       0       0       0       0       0       0       0       0
       0       0       0       0       0       0       0       0       0       0
       0       0       0       0       0       0       0       0       0       0
       0       0       0       0       0       0       0       0       0       0
       0       0       0       0       0       0       0       0       0       0
       0       0       0       0       0       0       0       0       0       0
       0       0       0       0       0       0       0       0       0       0
       0       0       0       0       0       0       0       0       0       0
       0       0       0       0       0       0       0       0       0       0
       0       0       0       0       0       0       0       0       0       0
       0       0       0       0       0       0       0       0       0       0
       0       0       0       0       0       0       0       0       0       0
       0       0       0       0       0       0       0       0       0       0
       0       0       0       0       0       0       0       0       0       0
       0       0       0       0       0       0       0       0       0       0
       0       0       0       0       0       0       0       0       0       0
       0       0       0       0       0       0       0       0       0       0
       0       0       0       0       0       0       0       0       0       0
       0       0       0       0       0       0       0       0       0       0
       0       0       0       0       0       0       0       0       0       0
       0       0       0       0       0       0       0       0       0       0
       0       0       0       0       0       0       0       0       0       0
       0       0       0       0       0       0       0       0       0       0
       0       0       0       0       0       0       0       0       0       0
       0       0       0       0       0       0       0       0       0       0
       0       0       0       0       0       0       0       0       0       0
       0       0       0       0       0       0       0       0       0       0
       0       0       0       0       0       0       0       0       0       0
       0       0       0       0       0       0       0       0       0       0
       0       0       0       0       0       0       0       0       0       0
       0       0       0       0       0       0       0       0       0       0
       0       0       0       0       0       0       0       0       0       0
       0       0       0       0       0       0       0       0       0       0
       0       0       0       0       0       0       0       0       0       0
       0       0       0       0       0       0       0       0       0       0
       0       0       0       0       0       0       0       0       0       0
       0       0       0       0       0       0       0       0       0       0
       0       0       0       0       0       0       0       0       0       0
       0       0       0       0       0       0       0       0       0       0
       0       0       0       0       0       0       0       0       0       0
       0       0       0       0       0       0       0       0       0       0
       0       0       0       0       0       0       0       0       0       0
       0       0       0       0       0       0       0       0       0       0
       0       0       0       0       0       0       0       0       0       0
       0       0       0       0       0       0       0       0       0       0
       0       0       0       0       0       0       0       0       0       0
       0       0       0       0       0       0       0       0       0       0
       0       0       0       0       0       0       0       0       0       0
       0       0       0       0       0       0       0       0       0       0
       0       0       0       0       0       0       0       0       0       0
       0       0       0       0       0       0       0       0       0       0
       0       0       0       0       0       0       0       0       0       0
       0       0       0       0       0       0       0       0       0       0
       0       0       0       0       0       0       0       0       0       0
       0       0       0       0       0       0       0       0       0       0
       0       0       0       0       0       0       0       0       0       0
       0       0       0       0       0       0       0       0       0       0
       0       0       0       0       0       0       0       0       0       0
       0       0       0       0       0       0       0       0       0       0
       0       0       0       0       0       0       0       0       0       0
       0       0       0       0       0       0       0       0       0       0
       0       0       0       0       0       0       0       0       0       0
       0       0       0       0       0       0       0       0       0       0
       0       0       0       0       0       0       0       0       0       0
       0       0       0       0       0       0       0       0       0       0
       0       0       0       0       0       0       0       0       0       0
       0       0       0       0       0       0       0       0       0       0
       0       0       0       0       0       0       0       0       0       0
       0       0       0       0       0       0       0       0       0       0
       0       0       0       0       0       0       0       0       0       0
       0       0       0       0       0       0       0       0       0       0
       0       0       0       0       0       0       0       0       0       0
       0       0       0       0       0       0       0       0       0       0
       0       0       0       0       0       0       0       0       0       0
       0       0       0       0       0       0       0       0       0       0
       0       0       0       0       0       0       0       0       0       0
       0       0       0       0       0       0       0       0       0       0
       0       0       0       0       0       0       0       0       0       0
       0       0       0       0       0       0       0       0       0       0
       0       0       0       0       0       0       0       0       0       0
       0       0       0       0       0       0       0       0       0       0
       0       0       0       0       0       0       0       0       0       0
       0       0       0       0       0       0       0       0       0       0
       0       0       0       0       0       0       0       0       0       0
       0       0       0       0       0       0       0       0       0       0
       0       0       0       0       0       0       0       0       0       0
       0       0       0       0       0       0       0       0       0       0
       0       0       0       0       0       0       0       0       0       0
       0       0       0       0       0       0       0       0       0       0
       0       0       0       0       0       0       0       0       0       0
       0       0       0       0       0       0       0       0       0       0
       0       0       0       0       0       0       0       0       0       0
       0       0       0       0       0       0       0       0       0       0
       0       0       0       0       0       0       0       0       0       0
       0       0       0       0       0       0       0       0       0       0
       0       0       0       0       0       0       0       0       0       0
       0       0       0       0       0       0       0       0       0       0
       0       0       0       0       0       0       0       0       0       0
       0       0       0       0       0       0       0       0       0       0
       0       0       0       0       0       0       0       0       0       0
       0       0       0       0       0       0       0       0       0       0
       0       0       0       0       0       0       0       0       0       0
       0       0       0       0       0       0       0       0       0       0
       0       0       0       0       0       0       0       0       0       0
       0       0       0       0       0       0       0       0       0       0
       0       0       0       0       0       0       0       0       0       0
       0       0       0       0       0       0       0       0       0       0
       0       0       0       0       0       0       0       0       0       0
       0       0       0       0       0       0       0       0       0       0
       0       0       0       0       0       0       0       0       0       0
       0       0       0       0       0       0       0       0       0       0
       0       0       0       0       0       0       0       0       0       0
       0       0       0       0       0       0       0       0       0       0
       0       0       0       0       0       0       0       0       0       0
       0       0       0       0       0       0       0       0       0       0
       0       0       0       0       0       0       0       0       0       0
       0       0       0       0       0       0       0       0       0       0
       0       0       0       0       0       0       0       0       0       0
       0       0       0       0       0       0       0       0       0       0
       0       0       0       0       0       0       0       0       0       0
       0       0       0       0       0       0       0       0       0       0
       0       0       0       0       0       0       0       0       0       0
       0       0       0       0       0       0       0       0       0       0
       0       0       0       0       0       0       0       0       0       0
       0       0       0       0       0       0       0       0       0       0
       0       0       0       0       0       0       0       0       0       0
       0       0       0       0       0       0       0       0       0       0
       0       0       0       0       0       0       0       0       0       0
       0       0       0       0       0       0       0       0       0       0
       0       0       0       0       0       0       0       0       0       0
       0       0       0       0       0       0       0       0       0       0
       0       0       0       0       0       0       0       0       0       0
       0       0       0       0       0       0       0       0       0       0
       0       0       0       0       0       0       0       0       0       0
       0       0       0       0       0       0       0       0       0       0
       0       0       0       0       0       0       0       0       0       0
       0       0       0       0       0       0       0       0       0       0
       0       0       0       0       0       0       0       0       0       0
       0       0       0       0       0       0       0       0       0       0
       0       0       0       0       0       0       0       0       0       0
       0       0       0       0       0       0       0       0       0       0
       0       0       0       0       0       0       0       0       0       0
       0       0       0       0       0       0       0       0       0       0
       0       0       0       0       0       0       0       0       0       0
       0       0       0       0       0       0       0       0       0       0
       0       0       0       0       0       0       0       0       0       0
       0       0       0       0       0       0       0       0       0       0
       0       0       0       0       0       0       0       0       0       0
       0       0       0       0       0       0       0       0       0       0
       0       0       0       0       0       0       0       0       0       0
       0       0       0       0       0       0       0       0       0       0
       0       0       0       0       0       0       0       0       0       0
       0       0       0       0       0       0       0       0       0       0
       0       0       0       0       0       0       0       0       0       0
       0       0       0       0       0       0       0       0       0       0
       0       0       0       0       0       0       0       0       0       0
       0       0       0       0       0       0       0       0       0       0
       0       0       0       0       0       0       0       0       0       0
       0       0       0       0       0       0       0       0       0       0
       0       0       0       0       0       0       0       0       0       0
       0       0       0       0       0       0       0       0       0       0
       0       0       0       0       0       0       0       0       0       0
       0       0       0       0       0       0       0       0       0       0
       0       0       0       0       0       0       0       0       0       0
       0       0       0       0       0       0       0       0       0       0
       0       0       0       0       0       0       0       0       0       0
       0       0       0       0       0       0       0       0       0       0
       0       0       0       0       0       0       0       0       0       0
       0       0       0       0       0       0       0       0       0       0
       0       0       0       0       0       0       0       0       0       0
       0       0       0       0       0       0       0       0       0       0
       0       0       0       0       0       0       0       0       0       0
       0       0       0       0       0       0       0       0       0       0
       0       0       0       0       0       0       0       0       0       0
       0       0       0       0       0       0       0       0       0       0
       0       0       0       0       0       0       0       0       0       0
       0       0       0       0       0       0       0       0       0       0
       0       0       0       0       0       0       0       0       0       0
       0       0       0       0       0       0       0       0       0       0
       0       0       0       0       0       0       0       0       0       0
       0       0       0       0       0       0       0       0       0       0
       0       0       0       0       0       0       0       0       0       0
       0       0       0       0       0       0       0       0       0       0
       0       0       0       0       0       0       0       0       0       0
       0       0       0       0       0       0       0       0       0       0
       0       0       0       0       0       0       0       0       0       0
       0       0       0       0       0       0       0       0       0       0
       0       0       0       0       0       0       0       0       0       0
       0       0       0       0       0       0       0       0       0       0
       0       0       0       0       0       0       0       0       0       0
       0       0       0       0       0       0       0       0       0       0
       0       0       0       0       0       0       0       0       0       0
       0       0       0       0       0       0       0       0       0       0
       0       0       0       0       0       0       0       0       0       0
       0       0       0       0       0       0       0       0       0       0
       0       0       0       0       0       0       0       0       0       0
       0       0       0       0       0       0       0       0       0       0
       0       0       0       0       0       0       0       0       0       0
       0       0       0       0       0       0       0       0       0       0
       0       0       0       0       0       0       0       0       0       0
       0       0       0       0       0       0       0       0       0       0
       0       0       0       0       0       0       0       0       0       0
       0       0       0       0       0       0       0       0       0       0
       0       0       0       0       0       0       0       0       0       0
       0       0       0       0       0       0       0       0       0       0
       0       0       0       0       0       0       0       0       0       0
       0       0       0       0       0       0       0       0       0       0
       0       0       0       0       0       0       0       0       0       0
       0       0       0       0       0       0       0       0       0       0
       0       0       0       0       0       0       0       0       0       0
       0       0       0       0       0       0       0       0       0       0
       0       0       0       0       0       0       0       0       0       0
       0       0       0       0       0       0       0       0       0       0
       0       0       0       0       0       0       0       0       0       0
       0       0       0       0       0       0       0       0       0       0
       0       0       0       0       0       0       0       0       0       0
       0       0       0       0       0       0       0       0       0       0
       0       0       0       0       0       0       0       0       0       0
       0       0       0       0       0       0       0       0       0       0
       0       0       0       0       0       0       0       0       0       0
       0       0       0       0       0       0       0       0       0       0
       0       0       0       0       0       0       0       0       0       0
       0       0       0       0       0       0       0       0       0       0
       0       0       0       0       0       0       0       0       0       0
       0       0       0       0       0       0       0       0       0       0
       0       0       0       0       0       0       0       0       0       0
       0       0       0       0       0       0       0       0       0       0
       0       0       0       0       0       0       0       0       0       0
       0       0       0       0       0       0       0       0       0       0
       0       0       0       0       0       0       0       0       0       0
       0       0       0       0       0       0       0       0       0       0
       0       0       0       0       0       0       0       0       0       0
       0       0       0       0       0       0       0       0       0       0
       0       0       0       0       0       0       0       0       0       0
       0       0       0       0       0       0       0       0       0       0
       0       0       0       0       0       0       0       0       0       0
       0       0       0       0       0       0       0       0       0       0
       0       0       0       0       0       0       0       0       0       0
       0       0       0       0       0       0       0       0       0       0
       0       0       0       0       0       0       0       0       0       0
       0       0       0       0       0       0       0       0       0       0
       0       0       0       0       0       0       0       0       0       0
       0       0       0       0       0       0       0       0       0       0
       0       0       0       0       0       0       0       0       0       0
       0       0       0       0       0       0       0       0       0       0
       0       0       0       0       0       0       0       0       0       0
       0       0       0       0       0       0       0       0       0       0
       0       0       0       0       0       0       0       0       0       0
       0       0       0       0       0       0       0       0       0       0
       0       0       0       0       0       0       0       0       0       0
       0       0       0       0       0       0       0       0       0       0
       0       0       0       0       0       0       0       0       0       0
       0       0       0       0       0       0       0       0       0       0
       0       0       0       0       0       0       0       0       0       0
       0       0       0       0       0       0       0       0       0       0
       0       0       0       0       0       0       0       0       0       0
       0       0       0       0       0       0       0       0       0       0
       0       0       0       0       0       0       0       0       0       0
       0       0       0       0       0       0       0       0       0       0
       0       0       0       0       0       0       0       0       0       0
       0       0       0       0       0       0       0       0       0       0
       0       0       0       0       0       0       0       0       0       0
       0       0       0       0       0       0       0       0       0       0
       0       0       0       0       0       0       0       0       0       0
       0       0       0       0       0       0       0       0       0       0
       0       0       0       0       0       0       0       0       0       0
       0       0       0       0       0       0       0       0       0       0
       0       0       0       0       0       0       0       0       0       0
       0       0       0       0       0       0       0       0       0       0
       0       0       0       0       0       0       0       0       0       0
       0       0       0       0       0       0       0       0       0       0
       0       0       0       0       0       0       0       0       0       0
       0       0       0       0       0       0       0       0       0       0
       0       0       0       0       0       0       0       0       0       0
       0       0       0       0       0       0       0       0       0       0
       0       0       0       0       0       0       0       0       0       0
       0       0       0       0       0       0       0       0       0       0
       0       0       0       0       0       0       0       0       0       0
       0       0       0       0       0       0       0       0       0       0
       0       0       0       0       0       0       0       0       0       0
       0       0       0       0       0       0       0       0       0       0
       0       0       0       0       0       0       0       0       0       0
       0       0       0       0       0       0       0       0       0       0
       0       0       0       0       0       0       0       0       0       0
       0       0       0       0       0       0       0       0       0       0
       0       0       0       0       0       0       0       0       0       0
       0       0       0       0       0       0       0       0       0       0
       0       0       0       0       0       0       0       0       0       0
       0       0       0       0       0       0       0       0       0       0
       0       0       0       0       0       0       0       0       0       0
       0       0       0       0       0       0       0       0       0       0
       0       0       0       0       0       0       0       0       0       0
       0       0       0       0       0       0       0       0       0       0
       0       0       0       0       0       0       0       0       0       0
       0       0       0       0       0       0       0       0       0       0
       0       0       0       0       0       0       0       0       0       0
       0       0       0       0       0       0       0       0       0       0
       0       0       0       0       0       0       0       0       0       0
       0       0       0       0       0       0       0       0       0       0
       0       0       0       0       0       0       0       0       0       0
       0       0       0       0       0       0       0       0       0       0
       0       0       0       0       0       0       0       0       0       0
       0       0       0       0       0       0       0       0       0       0
       0       0       0       0       0       0       0       0       0       0
       0       0       0       0       0       0       0       0       0       0
       0       0       0       0       0       0       0       0       0       0
       0       0       0       0       0       0       0       0       0       0
       0       0       0       0       0       0       0       0       0       0
       0       0       0       0       0       0       0       0       0       0
       0       0       0       0       0       0       0       0       0       0
       0       0       0       0       0       0       0       0       0       0
       0       0       0       0       0       0       0       0       0       0
       0       0       0       0       0       0       0       0       0       0
       0       0       0       0       0       0       0       0       0       0
       0       0       0       0       0       0       0       0       0       0
       0       0       0       0       0       0       0       0       0       0
       0       0       0       0       0       0       0       0       0       0
       0       0       0       0       0       0       0       0       0       0
       0       0       0       0       0       0       0       0       0       0
       0       0       0       0       0       0       0       0       0       0
       0       0       0       0       0       0       0       0       0       0
       0       0       0       0       0       0       0       0       0       0
       0       0       0       0       0       0       0       0       0       0
       0       0       0       0       0       0       0       0       0       0
       0       0       0       0       0       0       0       0       0       0
       0       0       0       0       0       0       0       0       0       0
       0       0       0       0       0       0       0       0       0       0
       0       0       0       0       0       0       0       0       0       0
       0       0       0       0       0       0       0       0       0       0
       0       0       0       0       0       0       0       0       0       0
       0       0       0       0       0       0       0       0       0       0
       0       0       0       0       0       0       0       0       0       0
       0       0       0       0       0       0       0       0       0       0
       0       0       0       0       0       0       0       0       0       0
       0       0       0       0       0       0       0       0       0       0
       0       0       0       0       0       0       0       0       0       0
       0       0       0       0       0       0       0       0       0       0
       0       0       0       0       0       0       0       0       0       0
       0       0       0       0       0       0       0       0       0       0
       0       0       0       0       0       0       0       0       0       0
       0       0       0       0       0       0       0       0       0       0
       0       0       0       0       0       0       0       0       0       0
       0       0       0       0       0       0       0       0       0       0
       0       0       0       0       0       0       0       0       0       0
       0       0       0       0       0       0       0       0       0       0
       0       0       0       0       0       0       0       0       0       0
       0       0       0       0       0       0       0       0       0       0
       0       0       0       0       0       0       0       0       0       0
       0       0       0       0       0       0       0       0       0       0
       0       0       0       0       0       0       0       0       0       0
       0       0       0       0       0       0       0       0       0       0
       0       0       0       0       0       0       0       0       0       0
       0       0       0       0       0       0       0       0       0       0
       0       0       0       0       0       0       0       0       0       0
       0       0       0       0       0       0       0       0       0       0
       0       0       0       0       0       0       0       0       0       0
       0       0       0       0       0       0       0       0       0       0
       0       0       0       0       0       0       0       0       0       0
       0       0       0       0       0       0       0       0       0       0
       0       0       0       0       0       0       0       0       0       0
       0       0       0       0       0       0       0       0       0       0
       0       0       0       0       0       0       0       0       0       0
       0       0       0       0       0       0       0       0       0       0
       0       0       0       0       0       0       0       0       0       0
       0       0       0       0       0       0       0       0       0       0
       0       0       0       0       0       0       0       0       0       0
       0       0       0       0       0       0       0       0       0       0
       0       0       0       0       0       0       0       0       0       0
       0       0       0       0       0       0       0       0       0       0
       0       0       0       0       0       0       0       0       0       0
       0       0       0       0       0       0       0       0       0       0
       0       0       0       0       0       0       0       0       0       0
       0       0       0       0       0       0       0       0       0       0
       0       0       0       0       0       0       0       0       0       0
       0       0       0       0       0       0       0       0       0       0
       0       0       0       0       0       0       0       0       0       0
       0       0       0       0       0       0       0       0       0       0
       0       0       0       0       0       0       0       0       0       0
       0       0       0       0       0       0       0       0       0       0
       0       0       0       0       0       0       0       0       0       0
       0       0       0       0       0       0       0       0       0       0
       0       0       0       0       0       0       0       0       0       0
       0       0       0       0       0       0       0       0       0       0
       0       0       0       0       0       0       0       0       0       0
       0       0       0       0       0       0       0       0       0       0
       0       0       0       0       0       0       0       0       0       0
       0       0       0       0       0       0       0       0       0       0
       0       0       0       0       0       0       0       0       0       0
       0       0       0       0       0       0       0       0       0       0
       0       0       0       0       0       0       0       0       0       0
       0       0       0       0       0       0       0       0       0       0
       0       0       0       0       0       0       0       0       0       0
       0       0       0       0       0       0       0       0       0       0
       0       0       0       0       0       0       0       0       0       0
       0       0       0       0       0       0       0       0       0       0
       0       0       0       0       0       0       0       0       0       0
       0       0       0       0       0       0       0       0       0       0
       0       0       0       0       0       0       0       0       0       0
       0       0       0       0       0       0       0       0       0       0
       0       0       0       0       0       0       0       0       0       0
       0       0       0       0       0       0       0       0       0       0
       0       0       0       0       0       0       0       0       0       0
       0       0       0       0       0       0       0       0       0       0
       0       0       0       0       0       0       0       0       0       0
       0       0       0       0       0       0       0       0       0       0
       0       0       0       0       0       0       0       0       0       0
       0       0       0       0       0       0       0       0       0       0
       0       0       0       0       0       0       0       0       0       0
       0       0       0       0       0       0       0       0       0       0
       0       0       0       0       0       0       0       0       0       0
       0       0       0       0       0       0       0       0       0       0
       0       0       0       0       0       0       0       0       0       0
       0       0       0       0       0       0       0       0       0       0
       0       0       0       0       0       0       0       0       0       0
       0       0       0       0       0       0       0       0       0       0
       0       0       0       0       0       0       0       0       0       0
       0       0       0       0       0       0       0       0       0       0
       0       0       0       0       0       0       0       0       0       0
       0       0       0       0       0       0       0       0       0       0
       0       0       0       0       0       0       0       0       0       0
       0       0       0       0       0       0       0       0       0       0
       0       0       0       0       0       0       0       0       0       0
       0       0       0       0       0       0       0       0       0       0
       0       0       0       0       0       0       0       0       0       0
       0       0       0       0       0       0       0       0       0       0
       0       0       0       0       0       0       0       0       0       0
       0       0       0       0       0       0       0       0       0       0
       0       0       0       0       0       0       0       0       0       0
       0       0       0       0       0       0       0       0       0       0
       0       0       0       0       0       0       0       0       0       0
       0       0       0       0       0       0       0       0       0       0
       0       0       0       0       0       0       0       0       0       0
       0       0       0       0       0       0       0       0       0       0
       0       0       0       0       0       0       0       0       0       0
       0       0       0       0       0       0       0       0       0       0
       0       0       0       0       0       0       0       0       0       0
       0       0       0       0       0       0       0       0       0       0
       0       0       0       0       0       0       0       0       0       0
       0       0       0       0       0       0       0       0       0       0
       0       0       0       0       0       0       0       0       0       0
       0       0       0       0       0       0       0       0       0       0
       0       0       0       0       0       0       0       0       0       0
       0       0       0       0       0       0       0       0       0       0
       0       0       0       0       0       0       0       0       0       0
       0       0       0       0       0       0       0       0       0       0
       0       0       0       0       0       0       0       0       0       0
       0       0       0       0       0       0       0       0       0       0
       0       0       0       0       0       0       0       0       0       0
       0       0       0       0       0       0       0       0       0       0
       0       0       0       0       0       0       0       0       0       0
       0       0       0       0       0       0       0       0       0       0
       0       0       0       0       0       0       0       0       0       0
       0       0       0       0       0       0       0       0       0       0
       0       0       0       0       0       0       0       0       0       0
       0       0       0       0       0       0       0       0       0       0
       0       0       0       0       0       0       0       0       0       0
       0       0       0       0       0       0       0       0       0       0
       0       0       0       0       0       0       0       0       0       0
       0       0       0       0       0       0       0       0       0       0
       0       0       0       0       0       0       0       0       0       0
       0       0       0       0       0       0       0       0       0       0
       0       0       0       0       0       0       0       0       0       0
       0       0       0       0       0       0       0       0       0       0
       0       0       0       0       0       0       0       0       0       0
       0       0       0       0       0       0       0       0       0       0
       0       0       0       0       0       0       0       0       0       0
       0       0       0       0       0       0       0       0       0       0
       0       0       0       0       0       0       0       0       0       0
       0       0       0       0       0       0       0       0       0       0
       0       0       0       0       0       0       0       0       0       0
       0       0       0       0       0       0       0       0       0       0
       0       0       0       0       0       0       0       0       0       0
       0       0       0       0       0       0       0       0       0       0
       0       0       0       0       0       0       0       0       0       0
       0       0       0       0       0       0       0       0       0       0
       0       0       0       0       0       0       0       0       0       0
       0       0       0       0       0       0       0       0       0       0
       0       0       0       0       0       0       0       0       0       0
       0       0       0       0       0       0       0       0       0       0
       0       0       0       0       0       0       0       0       0       0
       0       0       0       0       0       0       0       0       0       0
       0       0       0       0       0       0       0       0       0       0
       0       0       0       0       0       0       0       0       0       0
       0       0       0       0       0       0       0       0       0       0
       0       0       0       0       0       0       0       0       0       0
       0       0       0       0       0       0       0       0       0       0
       0       0       0       0       0       0       0       0       0       0
       0       0       0       0       0       0       0       0       0       0
       0       0       0       0       0       0       0       0       0       0
       0       0       0       0       0       0       0       0       0       0
       0       0       0       0       0       0       0       0       0       0
       0       0       0       0       0       0       0       0       0       0
       0       0       0       0       0       0       0       0       0       0
       0       0       0       0       0       0       0       0       0       0
       0       0       0       0       0       0       0       0       0       0
       0       0       0       0       0       0       0       0       0       0
       0       0       0       0       0       0       0       0       0       0
       0       0       0       0       0       0       0       0       0       0
       0       0       0       0       0       0       0       0       0       0
       0       0       0       0       0       0       0       0       0       0
       0       0       0       0       0       0       0       0       0       0
       0       0       0       0       0       0       0       0       0       0
       0       0       0       0       0       0       0       0       0       0
       0       0       0       0       0       0       0       0       0       0
       0       0       0       0       0       0       0       0       0       0
       0       0       0       0       0       0       0       0       0       0
       0       0       0       0       0       0       0       0       0       0
       0       0       0       0       0       0       0       0       0       0
       0       0       0       0       0       0       0       0       0       0
       0       0       0       0       0       0       0       0       0       0
       0       0       0       0       0       0       0       0       0       0
       0       0       0       0       0       0       0       0       0       0
       0       0       0       0       0       0       0       0       0       0
       0       0       0       0       0       0       0       0       0       0
       0       0       0       0       0       0       0       0       0       0
       0       0       0       0       0       0       0       0       0       0
       0       0       0       0       0       0       0       0       0       0
       0       0       0       0       0       0       0       0       0       0
       0       0       0       0       0       0       0       0       0       0
       0       0       0       0       0       0       0       0       0       0
       0       0       0       0       0       0       0       0       0       0
       0       0       0       0       0       0       0       0       0       0
       0       0       0       0       0       0       0       0       0       0
       0       0       0       0       0       0       0       0       0       0
       0       0       0       0       0       0       0       0       0       0
       0       0       0       0       0       0       0       0       0       0
       0       0       0       0       0       0       0       0       0       0
       0       0       0       0       0       0       0       0       0       0
       0       0       0       0       0       0       0       0       0       0
       0       0       0       0       0       0       0       0       0       0
       0       0       0       0       0       0       0       0       0       0
       0       0       0       0       0       0       0       0       0       0
       0       0       0       0       0       0       0       0       0       0
       0       0       0       0       0       0       0       0       0       0
       0       0       0       0       0       0       0       0       0       0
       0       0       0       0       0       0       0       0       0       0
       0       0       0       0       0       0       0       0       0       0
       0       0       0       0       0       0       0       0       0       0
       0       0       0       0       0       0       0       0       0       0
       0       0       0       0       0       0       0       0       0       0
       0       0       0       0       0       0       0       0       0       0
       0       0       0       0       0       0       0       0       0       0
       0       0       0       0       0       0       0       0       0       0
       0       0       0       0       0       0       0       0       0       0
       0       0       0       0       0       0       0       0       0       0
       0       0       0       0       0       0       0       0       0       0
       0       0       0       0       0       0       0       0       0       0
       0       0       0       0       0       0       0       0       0       0
       0       0       0       0       0       0       0       0       0       0
       0       0       0       0       0       0       0       0       0       0
       0       0       0       0       0       0       0       0       0       0
       0       0       0       0       0       0       0       0       0       0
       0       0       0       0       0       0       0       0       0       0
       0       0       0       0       0       0       0       0       0       0
       0       0       0       0       0       0       0       0       0       0
       0       0       0       0       0       0       0       0       0       0
       0       0       0       0       0       0       0       0       0       0
       0       0       0       0       0       0       0       0       0       0
       0       0       0       0       0       0       0       0       0       0
       0       0       0       0       0       0       0       0       0       0
       0       0       0       0       0       0       0       0       0       0
       0       0       0       0       0       0       0       0       0       0
       0       0       0       0       0       0       0       0       0       0
       0       0       0       0       0       0       0       0       0       0
       0       0       0       0       0       0       0       0       0       0
       0       0       0       0       0       0       0       0       0       0
       0       0       0       0       0       0       0       0       0       0
       0       0       0       0       0       0       0       0       0       0
       0       0       0       0       0       0       0       0       0       0
       0       0       0       0       0       0       0       0       0       0
       0       0       0       0       0       0       0       0       0       0
       0       0       0       0       0       0       0       0       0       0
       0       0       0       0       0       0       0       0       0       0
       0       0       0       0       0       0       0       0       0       0
       0       0       0       0       0       0       0       0       0       0
       0       0       0       0       0       0       0       0       0       0
       0       0       0       0       0       0       0       0       0       0
       0       0       0       0       0       0       0       0       0       0
       0       0       0       0       0       0       0       0       0       0
       0       0       0       0       0       0       0       0       0       0
       0       0       0       0       0       0       0       0       0       0
       0       0       0       0       0       0       0       0       0       0
       0       0       0       0       0       0       0       0       0       0
       0       0       0       0       0       0       0       0       0       0
       0       0       0       0       0       0       0       0       0       0
       0       0       0       0       0       0       0       0       0       0
       0       0       0       0       0       0       0       0       0       0
       0       0       0       0       0       0       0       0       0       0
       0       0       0       0       0       0       0       0       0       0
       0       0       0       0       0       0       0       0       0       0
       0       0       0       0       0       0       0       0       0       0
       0       0       0       0       0       0       0       0       0       0
       0       0       0       0       0       0       0       0       0       0
       0       0       0       0       0       0       0       0       0       0
       0       0       0       0       0       0       0       0       0       0
       0       0       0       0       0       0       0       0       0       0
       0       0       0       0       0       0       0       0       0       0
       0       0       0       0       0       0       0       0       0       0
       0       0       0       0       0       0       0       0       0       0
       0       0       0       0       0       0       0       0       0       0
       0       0       0       0       0       0       0       0       0       0
       0       0       0       0       0       0       0       0       0       0
       0       0       0       0       0       0       0       0       0       0
       0       0       0       0       0       0       0       0       0       0
       0       0       0       0       0       0       0       0       0       0
       0       0       0       0       0       0       0       0       0       0
       0       0       0       0       0       0       0       0       0       0
       0       0       0       0       0       0       0       0       0       0
       0       0       0       0       0       0       0       0       0       0
       0       0       0       0       0       0       0       0       0       0
       0       0       0       0       0       0       0       0       0       0
       0       0       0       0       0       0       0       0       0       0
       0       0       0       0       0       0       0       0       0       0
       0       0       0       0       0       0       0       0       0       0
       0       0       0       0       0       0       0       0       0       0
       0       0       0       0       0       0       0       0       0       0
       0       0       0       0       0       0       0       0       0       0
       0       0       0       0       0       0       0       0       0       0
       0       0       0       0       0       0       0       0       0       0
       0       0       0       0       0       0       0       0       0       0
       0       0       0       0       0       0       0       0       0       0
       0       0       0       0       0       0       0       0       0       0
       0       0       0       0       0       0       0       0       0       0
       0       0       0       0       0       0       0       0       0       0
       0       0       0       0       0       0       0       0       0       0
       0       0       0       0       0       0       0       0       0       0
       0       0       0       0       0       0       0       0       0       0
       0       0       0       0       0       0       0       0       0       0
       0       0       0       0       0       0       0       0       0       0
       0       0       0       0       0       0       0       0       0       0
       0       0       0       0       0       0       0       0       0       0
       0       0       0       0       0       0       0       0       0       0
       0       0       0       0       0       0       0       0       0       0
       0       0       0       0       0       0       0       0       0       0
       0       0       0       0       0       0       0       0       0       0
       0       0       0       0       0       0       0       0       0       0
       0       0       0       0       0       0       0       0       0       0
       0       0       0       0       0       0       0       0       0       0
       0       0       0       0       0       0       0       0       0       0
       0       0       0       0       0       0       0       0       0       0
       0       0       0       0       0       0       0       0       0       0
       0       0       0       0       0       0       0       0       0       0
       0       0       0       0       0       0       0       0       0       0
       0       0       0       0       0       0       0       0       0       0
       0       0       0       0       0       0       0       0       0       0
       0       0       0       0       0       0       0       0       0       0
       0       0       0       0       0       0       0       0       0       0
       0       0       0       0       0       0       0       0       0       0
       0       0       0       0       0       0       0       0       0       0
       0       0       0       0       0       0       0       0       0       0
       0       0       0       0       0       0       0       0       0       0
       0       0       0       0       0       0       0       0       0       0
       0       0       0       0       0       0       0       0       0       0
       0       0       0       0       0       0       0       0       0       0
       0       0       0       0       0       0       0       0       0       0
       0       0       0       0       0       0       0       0       0       0
       0       0       0       0       0       0       0       0       0       0
       0       0       0       0       0       0       0       0       0       0
       0       0       0       0       0       0       0       0       0       0
       0       0       0       0       0       0       0       0       0       0
       0       0       0       0       0       0       0       0       0       0
       0       0       0       0       0       0       0       0       0       0
       0       0       0       0       0       0       0       0       0       0
       0       0       0       0       0       0       0       0       0       0
       0       0       0       0       0       0       0       0       0       0
       0       0       0       0       0       0       0       0       0       0
       0       0       0       0       0       0       0       0       0       0
       0       0       0       0       0       0       0       0       0       0
       0       0       0       0       0       0       0       0       0       0
       0       0       0       0       0       0       0       0       0       0
       0       0       0       0       0       0       0       0       0       0
       0       0       0       0       0       0       0       0       0       0
       0       0       0       0       0       0       0       0       0       0
       0       0       0       0       0       0       0       0       0       0
       0       0       0       0       0       0       0       0       0       0
       0       0       0       0       0       0       0       0       0       0
       0       0       0       0       0       0       0       0       0       0
       0       0       0       0       0       0       0       0       0       0
       0       0       0       0       0       0       0       0       0       0
       0       0       0       0       0       0       0       0       0       0
       0       0       0       0       0       0       0       0       0       0
       0       0       0       0       0       0       0       0       0       0
       0       0       0       0       0       0       0       0       0       0
       0       0       0       0       0       0       0       0       0       0
       0       0       0       0       0       0       0       0       0       0
       0       0       0       0       0       0       0       0       0       0
       0       0       0       0       0       0       0       0       0       0
       0       0       0       0       0       0       0       0       0       0
       0       0       0       0       0       0       0       0       0       0
       0       0       0       0       0       0       0       0       0       0
       0       0       0       0       0       0       0       0       0       0
       0       0       0       0       0       0       0       0       0       0
       0       0       0       0       0       0       0       0       0       0
       0       0       0       0       0       0       0       0       0       0
       0       0       0       0       0       0       0       0       0       0
       0       0       0       0       0       0       0       0       0       0
       0       0       0       0       0       0       0       0       0       0
       0       0       0       0       0       0       0       0       0       0
       0       0       0       0       0       0       0       0       0       0
       0       0       0       0       0       0       0       0       0       0
       0       0       0       0       0       0       0       0       0       0
       0       0       0       0       0       0       0       0       0       0
       0       0       0       0       0       0       0       0       0       0
       0       0       0       0       0       0       0       0       0       0
       0       0       0       0       0       0       0       0       0       0
%FLAG RADIUS_SET
%FORMAT(1a80)
modified Bondi radii (mbondi)                                                   
%FLAG RADII
%FORMAT(5E16.8)
  1.70000000E+00  1.70000000E+00  1.70000000E+00  1.70000000E+00  1.70000000E+00
  1.30000000E+00  1.70000000E+00  1.70000000E+00  1.70000000E+00  1.70000000E+00
  1.70000000E+00  1.30000000E+00  1.30000000E+00  1.70000000E+00  1.30000000E+00
  1.70000000E+00  1.70000000E+00  1.30000000E+00  1.30000000E+00  1.30000000E+00
  1.70000000E+00  1.70000000E+00  1.30000000E+00  1.70000000E+00  1.70000000E+00
  1.30000000E+00  1.70000000E+00  1.70000000E+00  1.30000000E+00  1.70000000E+00
  1.70000000E+00  1.30000000E+00  1.70000000E+00  1.30000000E+00  1.30000000E+00
  1.30000000E+00  1.70000000E+00  1.70000000E+00  1.70000000E+00  1.70000000E+00
  1.70000000E+00  1.30000000E+00  1.70000000E+00  1.70000000E+00  1.70000000E+00
  1.70000000E+00  1.70000000E+00  1.30000000E+00  1.30000000E+00  1.70000000E+00
  1.30000000E+00  1.70000000E+00  1.70000000E+00  1.30000000E+00  1.30000000E+00
  1.30000000E+00  1.70000000E+00  1.70000000E+00  1.30000000E+00  1.70000000E+00
  1.70000000E+00  1.30000000E+00  1.70000000E+00  1.70000000E+00  1.30000000E+00
  1.70000000E+00  1.70000000E+00  1.30000000E+00  1.70000000E+00  1.30000000E+00
  1.30000000E+00  1.30000000E+00  1.70000000E+00  1.70000000E+00  1.70000000E+00
  1.70000000E+00  1.70000000E+00  1.30000000E+00  1.70000000E+00  1.70000000E+00
  1.70000000E+00  1.70000000E+00  1.70000000E+00  1.30000000E+00  1.30000000E+00
  1.70000000E+00  1.30000000E+00  1.70000000E+00  1.70000000E+00  1.30000000E+00
  1.30000000E+00  1.30000000E+00  1.70000000E+00  1.70000000E+00  1.30000000E+00
  1.70000000E+00  1.70000000E+00  1.30000000E+00  1.70000000E+00  1.70000000E+00
  1.30000000E+00  1.70000000E+00  1.70000000E+00  1.30000000E+00  1.70000000E+00
  1.30000000E+00  1.30000000E+00  1.30000000E+00  1.70000000E+00  1.70000000E+00
  1.70000000E+00  1.70000000E+00  1.70000000E+00  1.30000000E+00  1.70000000E+00
  1.70000000E+00  1.70000000E+00  1.70000000E+00  1.70000000E+00  1.30000000E+00
  1.30000000E+00  1.70000000E+00  1.30000000E+00  1.70000000E+00  1.70000000E+00
  1.30000000E+00  1.30000000E+00  1.30000000E+00  1.70000000E+00  1.70000000E+00
  1.30000000E+00  1.70000000E+00  1.70000000E+00  1.30000000E+00  1.70000000E+00
  1.70000000E+00  1.30000000E+00  1.70000000E+00  1.70000000E+00  1.30000000E+00
  1.70000000E+00  1.30000000E+00  1.30000000E+00  1.30000000E+00  1.70000000E+00
  1.70000000E+00  1.70000000E+00  1.70000000E+00  1.70000000E+00  1.30000000E+00
  1.70000000E+00  1.70000000E+00  1.70000000E+00  1.70000000E+00  1.70000000E+00
  1.30000000E+00  1.30000000E+00  1.70000000E+00  1.30000000E+00  1.70000000E+00
  1.70000000E+00  1.30000000E+00  1.30000000E+00  1.30000000E+00  1.70000000E+00
  1.70000000E+00  1.30000000E+00  1.70000000E+00  1.70000000E+00  1.30000000E+00
  1.70000000E+00  1.70000000E+00  1.30000000E+00  1.70000000E+00  1.70000000E+00
  1.30000000E+00  1.70000000E+00  1.30000000E+00  1.30000000E+00  1.30000000E+00
  1.70000000E+00  1.70000000E+00  1.70000000E+00  1.70000000E+00  1.70000000E+00
  1.30000000E+00  1.70000000E+00  1.70000000E+00  1.70000000E+00  1.70000000E+00
  1.70000000E+00  1.30000000E+00  1.30000000E+00  1.70000000E+00  1.30000000E+00
  1.70000000E+00  1.70000000E+00  1.30000000E+00  1.30000000E+00  1.30000000E+00
  1.70000000E+00  1.70000000E+00  1.30000000E+00  1.70000000E+00  1.70000000E+00
  1.30000000E+00  1.70000000E+00  1.70000000E+00  1.30000000E+00  1.70000000E+00
  1.70000000E+00  1.30000000E+00  1.70000000E+00  1.30000000E+00  1.30000000E+00
  1.30000000E+00  1.70000000E+00  1.70000000E+00  1.70000000E+00  1.70000000E+00
  1.70000000E+00  1.30000000E+00  1.70000000E+00  1.70000000E+00  1.70000000E+00
  1.70000000E+00  1.70000000E+00  1.30000000E+00  1.30000000E+00  1.70000000E+00
  1.30000000E+00  1.70000000E+00  1.70000000E+00  1.30000000E+00  1.30000000E+00
  1.30000000E+00  1.70000000E+00  1.70000000E+00  1.30000000E+00  1.70000000E+00
  1.70000000E+00  1.30000000E+00  1.70000000E+00  1.70000000E+00  1.30000000E+00
  1.70000000E+00  1.70000000E+00  1.30000000E+00  1.70000000E+00  1.30000000E+00
  1.30000000E+00  1.30000000E+00  1.70000000E+00  1.70000000E+00  1.70000000E+00
  1.70000000E+00  1.70000000E+00  1.30000000E+00  1.70000000E+00  1.70000000E+00
  1.70000000E+00  1.70000000E+00  1.70000000E+00  1.30000000E+00  1.30000000E+00
  1.70000000E+00  1.30000000E+00  1.70000000E+00  1.70000000E+00  1.30000000E+00
  1.30000000E+00  1.30000000E+00  1.70000000E+00  1.70000000E+00  1.30000000E+00
  1.70000000E+00  1.70000000E+00  1.30000000E+00  1.70000000E+00  1.70000000E+00
  1.30000000E+00  1.70000000E+00  1.70000000E+00  1.30000000E+00  1.70000000E+00
  1.30000000E+00  1.30000000E+00  1.30000000E+00  1.70000000E+00  1.70000000E+00
  1.70000000E+00  1.70000000E+00  1.70000000E+00  1.30000000E+00  1.70000000E+00
  1.70000000E+00  1.70000000E+00  1.70000000E+00  1.70000000E+00  1.30000000E+00
  1.30000000E+00  1.70000000E+00  1.30000000E+00  1.70000000E+00  1.70000000E+00
  1.30000000E+00  1.30000000E+00  1.30000000E+00  1.70000000E+00  1.70000000E+00
  1.30000000E+00  1.70000000E+00  1.70000000E+00  1.30000000E+00  1.70000000E+00
  1.70000000E+00  1.30000000E+00  1.70000000E+00  1.70000000E+00  1.30000000E+00
  1.70000000E+00  1.30000000E+00  1.30000000E+00  1.30000000E+00  1.70000000E+00
  1.70000000E+00  1.70000000E+00  1.70000000E+00  1.70000000E+00  1.30000000E+00
  1.70000000E+00  1.70000000E+00  1.70000000E+00  1.70000000E+00  1.70000000E+00
  1.30000000E+00  1.30000000E+00  1.70000000E+00  1.30000000E+00  1.70000000E+00
  1.70000000E+00  1.30000000E+00  1.30000000E+00  1.30000000E+00  1.70000000E+00
  1.70000000E+00  1.30000000E+00  1.70000000E+00  1.70000000E+00  1.30000000E+00
  1.70000000E+00  1.70000000E+00  1.30000000E+00  1.70000000E+00  1.70000000E+00
  1.30000000E+00  1.70000000E+00  1.30000000E+00  1.30000000E+00  1.30000000E+00
  1.70000000E+00  1.70000000E+00  1.70000000E+00  1.70000000E+00  1.70000000E+00
  1.30000000E+00  1.70000000E+00  1.70000000E+00  1.70000000E+00  1.70000000E+00
  1.70000000E+00  1.30000000E+00  1.30000000E+00  1.70000000E+00  1.30000000E+00
  1.70000000E+00  1.70000000E+00  1.30000000E+00  1.30000000E+00  1.30000000E+00
  1.70000000E+00  1.70000000E+00  1.30000000E+00  1.70000000E+00  1.70000000E+00
  1.30000000E+00  1.70000000E+00  1.70000000E+00  1.30000000E+00  1.70000000E+00
  1.70000000E+00  1.30000000E+00  1.70000000E+00  1.30000000E+00  1.30000000E+00
  1.30000000E+00  1.70000000E+00  1.70000000E+00  1.70000000E+00  1.70000000E+00
  1.70000000E+00  1.30000000E+00  1.70000000E+00  1.70000000E+00  1.70000000E+00
  1.70000000E+00  1.70000000E+00  1.30000000E+00  1.30000000E+00  1.70000000E+00
  1.30000000E+00  1.70000000E+00  1.70000000E+00  1.30000000E+00  1.30000000E+00
  1.30000000E+00  1.70000000E+00  1.70000000E+00  1.30000000E+00  1.70000000E+00
  1.70000000E+00  1.30000000E+00  1.70000000E+00  1.70000000E+00  1.30000000E+00
  1.70000000E+00  1.70000000E+00  1.30000000E+00  1.70000000E+00  1.30000000E+00
  1.30000000E+00  1.30000000E+00  1.70000000E+00  1.70000000E+00  1.70000000E+00
  1.70000000E+00  1.70000000E+00  1.30000000E+00  1.70000000E+00  1.70000000E+00
  1.70000000E+00  1.70000000E+00  1.70000000E+00  1.30000000E+00  1.30000000E+00
  1.70000000E+00  1.30000000E+00  1.70000000E+00  1.70000000E+00  1.30000000E+00
  1.30000000E+00  1.30000000E+00  1.70000000E+00  1.70000000E+00  1.30000000E+00
  1.70000000E+00  1.70000000E+00  1.30000000E+00  1.70000000E+00  1.70000000E+00
  1.30000000E+00  1.70000000E+00  1.70000000E+00  1.30000000E+00  1.70000000E+00
  1.30000000E+00  1.30000000E+00  1.30000000E+00  1.70000000E+00  1.70000000E+00
  1.70000000E+00  1.70000000E+00  1.70000000E+00  1.30000000E+00  1.70000000E+00
  1.70000000E+00  1.70000000E+00  1.70000000E+00  1.70000000E+00  1.30000000E+00
  1.30000000E+00  1.70000000E+00  1.30000000E+00  1.70000000E+00  1.70000000E+00
  1.30000000E+00  1.30000000E+00  1.30000000E+00  1.70000000E+00  1.70000000E+00
  1.30000000E+00  1.70000000E+00  1.70000000E+00  1.30000000E+00  1.70000000E+00
  1.70000000E+00  1.30000000E+00  1.70000000E+00  1.70000000E+00  1.30000000E+00
  1.70000000E+00  1.30000000E+00  1.30000000E+00  1.30000000E+00  1.70000000E+00
  1.70000000E+00  1.70000000E+00  1.70000000E+00  1.70000000E+00  1.30000000E+00
  1.70000000E+00  1.70000000E+00  1.70000000E+00  1.70000000E+00  1.70000000E+00
  1.30000000E+00  1.30000000E+00  1.70000000E+00  1.30000000E+00  1.70000000E+00
  1.70000000E+00  1.30000000E+00  1.30000000E+00  1.30000000E+00  1.70000000E+00
  1.70000000E+00  1.30000000E+00  1.70000000E+00  1.70000000E+00  1.30000000E+00
  1.70000000E+00  1.70000000E+00  1.30000000E+00  1.70000000E+00  1.70000000E+00
  1.30000000E+00  1.70000000E+00  1.30000000E+00  1.30000000E+00  1.30000000E+00
  1.70000000E+00  1.70000000E+00  1.70000000E+00  1.70000000E+00  1.70000000E+00
  1.30000000E+00  1.70000000E+00  1.70000000E+00  1.70000000E+00  1.70000000E+00
  1.70000000E+00  1.30000000E+00  1.30000000E+00  1.70000000E+00  1.30000000E+00
  1.70000000E+00  1.70000000E+00  1.30000000E+00  1.30000000E+00  1.30000000E+00
  1.70000000E+00  1.70000000E+00  1.30000000E+00  1.70000000E+00  1.70000000E+00
  1.30000000E+00  1.70000000E+00  1.70000000E+00  1.30000000E+00  1.70000000E+00
  1.70000000E+00  1.30000000E+00  1.70000000E+00  1.30000000E+00  1.30000000E+00
  1.30000000E+00  1.70000000E+00  1.70000000E+00  1.70000000E+00  1.70000000E+00
  1.70000000E+00  1.30000000E+00  1.70000000E+00  1.70000000E+00  1.70000000E+00
  1.70000000E+00  1.70000000E+00  1.30000000E+00  1.30000000E+00  1.70000000E+00
  1.30000000E+00  1.70000000E+00  1.70000000E+00  1.30000000E+00  1.30000000E+00
  1.30000000E+00  1.70000000E+00  1.70000000E+00  1.30000000E+00  1.70000000E+00
  1.70000000E+00  1.30000000E+00  1.70000000E+00  1.70000000E+00  1.30000000E+00
  1.70000000E+00  1.70000000E+00  1.30000000E+00  1.70000000E+00  1.30000000E+00
  1.30000000E+00  1.30000000E+00  1.70000000E+00  1.70000000E+00  1.70000000E+00
  1.70000000E+00  1.70000000E+00  1.30000000E+00  1.70000000E+00  1.70000000E+00
  1.70000000E+00  1.70000000E+00  1.70000000E+00  1.30000000E+00  1.30000000E+00
  1.70000000E+00  1.30000000E+00  1.70000000E+00  1.70000000E+00  1.30000000E+00
  1.30000000E+00  1.30000000E+00  1.70000000E+00  1.70000000E+00  1.30000000E+00
  1.70000000E+00  1.70000000E+00  1.30000000E+00  1.70000000E+00  1.70000000E+00
  1.30000000E+00  1.70000000E+00  1.70000000E+00  1.30000000E+00  1.70000000E+00
  1.30000000E+00  1.30000000E+00  1.30000000E+00  1.70000000E+00  1.70000000E+00
  1.70000000E+00  1.70000000E+00  1.70000000E+00  1.30000000E+00  1.70000000E+00
  1.70000000E+00  1.70000000E+00  1.70000000E+00  1.70000000E+00  1.30000000E+00
  1.30000000E+00  1.70000000E+00  1.30000000E+00  1.70000000E+00  1.70000000E+00
  1.30000000E+00  1.30000000E+00  1.30000000E+00  1.70000000E+00  1.70000000E+00
  1.30000000E+00  1.70000000E+00  1.70000000E+00  1.30000000E+00  1.70000000E+00
  1.70000000E+00  1.30000000E+00  1.70000000E+00  1.70000000E+00  1.30000000E+00
  1.70000000E+00  1.30000000E+00  1.30000000E+00  1.30000000E+00  1.70000000E+00
  1.70000000E+00  1.70000000E+00  1.70000000E+00  1.70000000E+00  1.30000000E+00
  1.70000000E+00  1.70000000E+00  1.70000000E+00  1.70000000E+00  1.70000000E+00
  1.30000000E+00  1.30000000E+00  1.70000000E+00  1.30000000E+00  1.70000000E+00
  1.70000000E+00  1.30000000E+00  1.30000000E+00  1.30000000E+00  1.70000000E+00
  1.70000000E+00  1.30000000E+00  1.70000000E+00  1.70000000E+00  1.30000000E+00
  1.70000000E+00  1.70000000E+00  1.30000000E+00  1.70000000E+00  1.70000000E+00
  1.30000000E+00  1.70000000E+00  1.30000000E+00  1.30000000E+00  1.30000000E+00
  1.70000000E+00  1.70000000E+00  1.70000000E+00  1.70000000E+00  1.70000000E+00
  1.30000000E+00  1.70000000E+00  1.70000000E+00  1.70000000E+00  1.70000000E+00
  1.70000000E+00  1.30000000E+00  1.30000000E+00  1.70000000E+00  1.30000000E+00
  1.70000000E+00  1.70000000E+00  1.30000000E+00  1.30000000E+00  1.30000000E+00
  1.70000000E+00  1.70000000E+00  1.30000000E+00  1.70000000E+00  1.70000000E+00
  1.30000000E+00  1.70000000E+00  1.70000000E+00  1.30000000E+00  1.70000000E+00
  1.70000000E+00  1.30000000E+00  1.70000000E+00  1.30000000E+00  1.30000000E+00
  1.30000000E+00  1.70000000E+00  1.70000000E+00  1.70000000E+00  1.70000000E+00
  1.70000000E+00  1.30000000E+00  1.70000000E+00  1.70000000E+00  1.70000000E+00
  1.70000000E+00  1.70000000E+00  1.30000000E+00  1.30000000E+00  1.70000000E+00
  1.30000000E+00  1.70000000E+00  1.70000000E+00  1.30000000E+00  1.30000000E+00
  1.30000000E+00  1.70000000E+00  1.70000000E+00  1.30000000E+00  1.70000000E+00
  1.70000000E+00  1.30000000E+00  1.70000000E+00  1.70000000E+00  1.30000000E+00
  1.70000000E+00  1.70000000E+00  1.30000000E+00  1.70000000E+00  1.30000000E+00
  1.30000000E+00  1.30000000E+00  1.70000000E+00  1.70000000E+00  1.70000000E+00
  1.70000000E+00  1.70000000E+00  1.30000000E+00  1.70000000E+00  1.70000000E+00
  1.70000000E+00  1.70000000E+00  1.70000000E+00  1.30000000E+00  1.30000000E+00
  1.70000000E+00  1.30000000E+00  1.70000000E+00  1.70000000E+00  1.30000000E+00
  1.30000000E+00  1.30000000E+00  1.70000000E+00  1.70000000E+00  1.30000000E+00
  1.70000000E+00  1.70000000E+00  1.30000000E+00  1.70000000E+00  1.70000000E+00
  1.30000000E+00  1.70000000E+00  1.70000000E+00  1.30000000E+00  1.70000000E+00
  1.30000000E+00  1.30000000E+00  1.30000000E+00  1.70000000E+00  1.70000000E+00
  1.70000000E+00  1.70000000E+00  1.70000000E+00  1.30000000E+00  1.70000000E+00
  1.70000000E+00  1.70000000E+00  1.70000000E+00  1.70000000E+00  1.30000000E+00
  1.30000000E+00  1.70000000E+00  1.30000000E+00  1.70000000E+00  1.70000000E+00
  1.30000000E+00  1.30000000E+00  1.30000000E+00  1.70000000E+00  1.70000000E+00
  1.30000000E+00  1.70000000E+00  1.70000000E+00  1.30000000E+00  1.70000000E+00
  1.70000000E+00  1.30000000E+00  1.70000000E+00  1.70000000E+00  1.30000000E+00
  1.70000000E+00  1.30000000E+00  1.30000000E+00  1.30000000E+00  1.70000000E+00
  1.70000000E+00  1.70000000E+00  1.70000000E+00  1.70000000E+00  1.30000000E+00
  1.70000000E+00  1.70000000E+00  1.70000000E+00  1.70000000E+00  1.70000000E+00
  1.30000000E+00  1.30000000E+00  1.70000000E+00  1.30000000E+00  1.70000000E+00
  1.70000000E+00  1.30000000E+00  1.30000000E+00  1.30000000E+00  1.70000000E+00
  1.70000000E+00  1.30000000E+00  1.70000000E+00  1.70000000E+00  1.30000000E+00
  1.70000000E+00  1.70000000E+00  1.30000000E+00  1.70000000E+00  1.70000000E+00
  1.30000000E+00  1.70000000E+00  1.30000000E+00  1.30000000E+00  1.30000000E+00
  1.70000000E+00  1.70000000E+00  1.70000000E+00  1.70000000E+00  1.70000000E+00
  1.30000000E+00  1.70000000E+00  1.70000000E+00  1.70000000E+00  1.70000000E+00
  1.70000000E+00  1.30000000E+00  1.30000000E+00  1.70000000E+00  1.30000000E+00
  1.70000000E+00  1.70000000E+00  1.30000000E+00  1.30000000E+00  1.30000000E+00
  1.70000000E+00  1.70000000E+00  1.30000000E+00  1.70000000E+00  1.70000000E+00
  1.30000000E+00  1.70000000E+00  1.70000000E+00  1.30000000E+00  1.70000000E+00
  1.70000000E+00  1.30000000E+00  1.70000000E+00  1.30000000E+00  1.30000000E+00
  1.30000000E+00  1.70000000E+00  1.70000000E+00  1.70000000E+00  1.70000000E+00
  1.70000000E+00  1.30000000E+00  1.70000000E+00  1.70000000E+00  1.70000000E+00
  1.70000000E+00  1.70000000E+00  1.30000000E+00  1.30000000E+00  1.70000000E+00
  1.30000000E+00  1.70000000E+00  1.70000000E+00  1.30000000E+00  1.30000000E+00
  1.30000000E+00  1.70000000E+00  1.70000000E+00  1.30000000E+00  1.70000000E+00
  1.70000000E+00  1.30000000E+00  1.70000000E+00  1.70000000E+00  1.30000000E+00
  1.70000000E+00  1.70000000E+00  1.30000000E+00  1.70000000E+00  1.30000000E+00
  1.30000000E+00  1.30000000E+00  1.70000000E+00  1.70000000E+00  1.70000000E+00
  1.70000000E+00  1.70000000E+00  1.30000000E+00  1.70000000E+00  1.70000000E+00
  1.70000000E+00  1.70000000E+00  1.70000000E+00  1.30000000E+00  1.30000000E+00
  1.70000000E+00  1.30000000E+00  1.70000000E+00  1.70000000E+00  1.30000000E+00
  1.30000000E+00  1.30000000E+00  1.70000000E+00  1.70000000E+00  1.30000000E+00
  1.70000000E+00  1.70000000E+00  1.30000000E+00  1.70000000E+00  1.70000000E+00
  1.30000000E+00  1.70000000E+00  1.70000000E+00  1.30000000E+00  1.70000000E+00
  1.30000000E+00  1.30000000E+00  1.30000000E+00  1.70000000E+00  1.70000000E+00
  1.70000000E+00  1.70000000E+00  1.70000000E+00  1.30000000E+00  1.70000000E+00
  1.70000000E+00  1.70000000E+00  1.70000000E+00  1.70000000E+00  1.30000000E+00
  1.30000000E+00  1.70000000E+00  1.30000000E+00  1.70000000E+00  1.70000000E+00
  1.30000000E+00  1.30000000E+00  1.30000000E+00  1.70000000E+00  1.70000000E+00
  1.30000000E+00  1.70000000E+00  1.70000000E+00  1.30000000E+00  1.70000000E+00
  1.70000000E+00  1.30000000E+00  1.70000000E+00  1.70000000E+00  1.30000000E+00
  1.70000000E+00  1.30000000E+00  1.30000000E+00  1.30000000E+00  1.70000000E+00
  1.70000000E+00  1.70000000E+00  1.70000000E+00  1.70000000E+00  1.30000000E+00
  1.70000000E+00  1.70000000E+00  1.70000000E+00  1.70000000E+00  1.70000000E+00
  1.30000000E+00  1.30000000E+00  1.70000000E+00  1.30000000E+00  1.70000000E+00
  1.70000000E+00  1.30000000E+00  1.30000000E+00  1.30000000E+00  1.70000000E+00
  1.70000000E+00  1.30000000E+00  1.70000000E+00  1.70000000E+00  1.30000000E+00
  1.70000000E+00  1.70000000E+00  1.30000000E+00  1.70000000E+00  1.70000000E+00
  1.30000000E+00  1.70000000E+00  1.30000000E+00  1.30000000E+00  1.30000000E+00
  1.70000000E+00  1.70000000E+00  1.70000000E+00  1.70000000E+00  1.70000000E+00
  1.30000000E+00  1.70000000E+00  1.70000000E+00  1.70000000E+00  1.70000000E+00
  1.70000000E+00  1.30000000E+00  1.30000000E+00  1.70000000E+00  1.30000000E+00
  1.70000000E+00  1.70000000E+00  1.30000000E+00  1.30000000E+00  1.30000000E+00
  1.70000000E+00  1.70000000E+00  1.30000000E+00  1.70000000E+00  1.70000000E+00
  1.30000000E+00  1.70000000E+00  1.70000000E+00  1.30000000E+00  1.70000000E+00
  1.70000000E+00  1.30000000E+00  1.70000000E+00  1.30000000E+00  1.30000000E+00
  1.30000000E+00  1.70000000E+00  1.70000000E+00  1.70000000E+00  1.70000000E+00
  1.70000000E+00  1.30000000E+00  1.70000000E+00  1.70000000E+00  1.70000000E+00
  1.70000000E+00  1.70000000E+00  1.30000000E+00  1.30000000E+00  1.70000000E+00
  1.30000000E+00  1.70000000E+00  1.70000000E+00  1.30000000E+00  1.30000000E+00
  1.30000000E+00  1.70000000E+00  1.70000000E+00  1.30000000E+00  1.70000000E+00
  1.70000000E+00  1.30000000E+00  1.70000000E+00  1.70000000E+00  1.30000000E+00
  1.70000000E+00  1.70000000E+00  1.30000000E+00  1.70000000E+00  1.30000000E+00
  1.30000000E+00  1.30000000E+00  1.70000000E+00  1.70000000E+00  1.70000000E+00
  1.70000000E+00  1.70000000E+00  1.30000000E+00  1.70000000E+00  1.70000000E+00
  1.70000000E+00  1.70000000E+00  1.70000000E+00  1.30000000E+00  1.30000000E+00
  1.70000000E+00  1.30000000E+00  1.70000000E+00  1.70000000E+00  1.30000000E+00
  1.30000000E+00  1.30000000E+00  1.70000000E+00  1.70000000E+00  1.30000000E+00
  1.70000000E+00  1.70000000E+00  1.30000000E+00  1.70000000E+00  1.70000000E+00
  1.30000000E+00  1.70000000E+00  1.70000000E+00  1.30000000E+00  1.70000000E+00
  1.30000000E+00  1.30000000E+00  1.30000000E+00  1.70000000E+00  1.70000000E+00
  1.70000000E+00  1.70000000E+00  1.70000000E+00  1.30000000E+00  1.70000000E+00
  1.70000000E+00  1.70000000E+00  1.70000000E+00  1.70000000E+00  1.30000000E+00
  1.30000000E+00  1.70000000E+00  1.30000000E+00  1.70000000E+00  1.70000000E+00
  1.30000000E+00  1.30000000E+00  1.30000000E+00  1.70000000E+00  1.70000000E+00
  1.30000000E+00  1.70000000E+00  1.70000000E+00  1.30000000E+00  1.70000000E+00
  1.70000000E+00  1.30000000E+00  1.70000000E+00  1.70000000E+00  1.30000000E+00
  1.70000000E+00  1.30000000E+00  1.30000000E+00  1.30000000E+00  1.70000000E+00
  1.70000000E+00  1.70000000E+00  1.70000000E+00  1.70000000E+00  1.30000000E+00
  1.70000000E+00  1.70000000E+00  1.70000000E+00  1.70000000E+00  1.70000000E+00
  1.30000000E+00  1.30000000E+00  1.70000000E+00  1.30000000E+00  1.70000000E+00
  1.70000000E+00  1.30000000E+00  1.30000000E+00  1.30000000E+00  1.70000000E+00
  1.70000000E+00  1.30000000E+00  1.70000000E+00  1.70000000E+00  1.30000000E+00
  1.70000000E+00  1.70000000E+00  1.30000000E+00  1.70000000E+00  1.70000000E+00
  1.30000000E+00  1.70000000E+00  1.30000000E+00  1.30000000E+00  1.30000000E+00
  1.70000000E+00  1.70000000E+00  1.70000000E+00  1.70000000E+00  1.70000000E+00
  1.30000000E+00  1.70000000E+00  1.70000000E+00  1.70000000E+00  1.70000000E+00
  1.70000000E+00  1.30000000E+00  1.30000000E+00  1.70000000E+00  1.30000000E+00
  1.70000000E+00  1.70000000E+00  1.30000000E+00  1.30000000E+00  1.30000000E+00
  1.70000000E+00  1.70000000E+00  1.30000000E+00  1.70000000E+00  1.70000000E+00
  1.30000000E+00  1.70000000E+00  1.70000000E+00  1.30000000E+00  1.70000000E+00
  1.70000000E+00  1.30000000E+00  1.70000000E+00  1.30000000E+00  1.30000000E+00
  1.30000000E+00  1.70000000E+00  1.70000000E+00  1.70000000E+00  1.70000000E+00
  1.70000000E+00  1.30000000E+00  1.70000000E+00  1.70000000E+00  1.70000000E+00
  1.70000000E+00  1.70000000E+00  1.30000000E+00  1.30000000E+00  1.70000000E+00
  1.30000000E+00  1.70000000E+00  1.70000000E+00  1.30000000E+00  1.30000000E+00
  1.30000000E+00  1.70000000E+00  1.70000000E+00  1.30000000E+00  1.70000000E+00
  1.70000000E+00  1.30000000E+00  1.70000000E+00  1.70000000E+00  1.30000000E+00
  1.70000000E+00  1.70000000E+00  1.30000000E+00  1.70000000E+00  1.30000000E+00
  1.30000000E+00  1.30000000E+00  1.70000000E+00  1.70000000E+00  1.70000000E+00
  1.70000000E+00  1.70000000E+00  1.30000000E+00  1.70000000E+00  1.70000000E+00
  1.70000000E+00  1.70000000E+00  1.70000000E+00  1.30000000E+00  1.30000000E+00
  1.70000000E+00  1.30000000E+00  1.70000000E+00  1.70000000E+00  1.30000000E+00
  1.30000000E+00  1.30000000E+00  1.70000000E+00  1.70000000E+00  1.30000000E+00
  1.70000000E+00  1.70000000E+00  1.30000000E+00  1.70000000E+00  1.70000000E+00
  1.30000000E+00  1.70000000E+00  1.70000000E+00  1.30000000E+00  1.70000000E+00
  1.30000000E+00  1.30000000E+00  1.30000000E+00  1.70000000E+00  1.70000000E+00
  1.70000000E+00  1.70000000E+00  1.70000000E+00  1.30000000E+00  1.70000000E+00
  1.70000000E+00  1.70000000E+00  1.70000000E+00  1.70000000E+00  1.30000000E+00
  1.30000000E+00  1.70000000E+00  1.30000000E+00  1.70000000E+00  1.70000000E+00
  1.30000000E+00  1.30000000E+00  1.30000000E+00  1.70000000E+00  1.70000000E+00
  1.30000000E+00  1.70000000E+00  1.70000000E+00  1.30000000E+00  1.70000000E+00
  1.70000000E+00  1.30000000E+00  1.70000000E+00  1.70000000E+00  1.30000000E+00
  1.70000000E+00  1.30000000E+00  1.30000000E+00  1.30000000E+00  1.70000000E+00
  1.70000000E+00  1.70000000E+00  1.70000000E+00  1.70000000E+00  1.30000000E+00
  1.70000000E+00  1.70000000E+00  1.70000000E+00  1.70000000E+00  1.70000000E+00
  1.30000000E+00  1.30000000E+00  1.70000000E+00  1.30000000E+00  1.70000000E+00
  1.70000000E+00  1.30000000E+00  1.30000000E+00  1.30000000E+00  1.70000000E+00
  1.70000000E+00  1.30000000E+00  1.70000000E+00  1.70000000E+00  1.30000000E+00
  1.70000000E+00  1.70000000E+00  1.30000000E+00  1.70000000E+00  1.70000000E+00
  1.30000000E+00  1.70000000E+00  1.30000000E+00  1.30000000E+00  1.30000000E+00
  1.70000000E+00  1.70000000E+00  1.70000000E+00  1.70000000E+00  1.70000000E+00
  1.30000000E+00  1.70000000E+00  1.70000000E+00  1.70000000E+00  1.70000000E+00
  1.70000000E+00  1.30000000E+00  1.30000000E+00  1.70000000E+00  1.30000000E+00
  1.70000000E+00  1.70000000E+00  1.30000000E+00  1.30000000E+00  1.30000000E+00
  1.70000000E+00  1.70000000E+00  1.30000000E+00  1.70000000E+00  1.70000000E+00
  1.30000000E+00  1.70000000E+00  1.70000000E+00  1.30000000E+00  1.70000000E+00
  1.70000000E+00  1.30000000E+00  1.70000000E+00  1.30000000E+00  1.30000000E+00
  1.30000000E+00  1.70000000E+00  1.70000000E+00  1.70000000E+00  1.70000000E+00
  1.70000000E+00  1.30000000E+00  1.70000000E+00  1.70000000E+00  1.70000000E+00
  1.70000000E+00  1.70000000E+00  1.30000000E+00  1.30000000E+00  1.70000000E+00
  1.30000000E+00  1.70000000E+00  1.70000000E+00  1.30000000E+00  1.30000000E+00
  1.30000000E+00  1.70000000E+00  1.70000000E+00  1.30000000E+00  1.70000000E+00
  1.70000000E+00  1.30000000E+00  1.70000000E+00  1.70000000E+00  1.30000000E+00
  1.70000000E+00  1.70000000E+00  1.30000000E+00  1.70000000E+00  1.30000000E+00
  1.30000000E+00  1.30000000E+00  1.70000000E+00  1.70000000E+00  1.70000000E+00
  1.70000000E+00  1.70000000E+00  1.30000000E+00  1.70000000E+00  1.70000000E+00
  1.70000000E+00  1.70000000E+00  1.70000000E+00  1.30000000E+00  1.30000000E+00
  1.70000000E+00  1.30000000E+00  1.70000000E+00  1.70000000E+00  1.30000000E+00
  1.30000000E+00  1.30000000E+00  1.70000000E+00  1.70000000E+00  1.30000000E+00
  1.70000000E+00  1.70000000E+00  1.30000000E+00  1.70000000E+00  1.70000000E+00
  1.30000000E+00  1.70000000E+00  1.70000000E+00  1.30000000E+00  1.70000000E+00
  1.30000000E+00  1.30000000E+00  1.30000000E+00  1.70000000E+00  1.70000000E+00
  1.70000000E+00  1.70000000E+00  1.70000000E+00  1.30000000E+00  1.70000000E+00
  1.70000000E+00  1.70000000E+00  1.70000000E+00  1.70000000E+00  1.30000000E+00
  1.30000000E+00  1.70000000E+00  1.30000000E+00  1.70000000E+00  1.70000000E+00
  1.30000000E+00  1.30000000E+00  1.30000000E+00  1.70000000E+00  1.70000000E+00
  1.30000000E+00  1.70000000E+00  1.70000000E+00  1.30000000E+00  1.70000000E+00
  1.70000000E+00  1.30000000E+00  1.70000000E+00  1.70000000E+00  1.30000000E+00
  1.70000000E+00  1.30000000E+00  1.30000000E+00  1.30000000E+00  1.70000000E+00
  1.70000000E+00  1.70000000E+00  1.70000000E+00  1.70000000E+00  1.30000000E+00
  1.70000000E+00  1.70000000E+00  1.70000000E+00  1.70000000E+00  1.70000000E+00
  1.30000000E+00  1.30000000E+00  1.70000000E+00  1.30000000E+00  1.70000000E+00
  1.70000000E+00  1.30000000E+00  1.30000000E+00  1.30000000E+00  1.70000000E+00
  1.70000000E+00  1.30000000E+00  1.70000000E+00  1.70000000E+00  1.30000000E+00
  1.70000000E+00  1.70000000E+00  1.30000000E+00  1.70000000E+00  1.70000000E+00
  1.30000000E+00  1.70000000E+00  1.30000000E+00  1.30000000E+00  1.30000000E+00
  1.70000000E+00  1.70000000E+00  1.70000000E+00  1.70000000E+00  1.70000000E+00
  1.30000000E+00  1.70000000E+00  1.70000000E+00  1.70000000E+00  1.70000000E+00
  1.70000000E+00  1.30000000E+00  1.30000000E+00  1.70000000E+00  1.30000000E+00
  1.70000000E+00  1.70000000E+00  1.30000000E+00  1.30000000E+00  1.30000000E+00
  1.70000000E+00  1.70000000E+00  1.30000000E+00  1.70000000E+00  1.70000000E+00
  1.30000000E+00  1.70000000E+00  1.70000000E+00  1.30000000E+00  1.70000000E+00
  1.70000000E+00  1.30000000E+00  1.70000000E+00  1.30000000E+00  1.30000000E+00
  1.30000000E+00  1.70000000E+00  1.70000000E+00  1.70000000E+00  1.70000000E+00
  1.70000000E+00  1.30000000E+00  1.70000000E+00  1.70000000E+00  1.70000000E+00
  1.70000000E+00  1.70000000E+00  1.30000000E+00  1.30000000E+00  1.70000000E+00
  1.30000000E+00  1.70000000E+00  1.70000000E+00  1.30000000E+00  1.30000000E+00
  1.30000000E+00  1.70000000E+00  1.70000000E+00  1.30000000E+00  1.70000000E+00
  1.70000000E+00  1.30000000E+00  1.70000000E+00  1.70000000E+00  1.30000000E+00
  1.70000000E+00  1.70000000E+00  1.30000000E+00  1.70000000E+00  1.30000000E+00
  1.30000000E+00  1.30000000E+00  1.70000000E+00  1.70000000E+00  1.70000000E+00
  1.70000000E+00  1.70000000E+00  1.30000000E+00  1.70000000E+00  1.70000000E+00
  1.70000000E+00  1.70000000E+00  1.70000000E+00  1.30000000E+00  1.30000000E+00
  1.70000000E+00  1.30000000E+00  1.70000000E+00  1.70000000E+00  1.30000000E+00
  1.30000000E+00  1.30000000E+00  1.70000000E+00  1.70000000E+00  1.30000000E+00
  1.70000000E+00  1.70000000E+00  1.30000000E+00  1.70000000E+00  1.70000000E+00
  1.30000000E+00  1.70000000E+00  1.70000000E+00  1.30000000E+00  1.70000000E+00
  1.30000000E+00  1.30000000E+00  1.30000000E+00  1.70000000E+00  1.70000000E+00
  1.70000000E+00  1.70000000E+00  1.70000000E+00  1.30000000E+00  1.70000000E+00
  1.70000000E+00  1.70000000E+00  1.70000000E+00  1.70000000E+00  1.30000000E+00
  1.30000000E+00  1.70000000E+00  1.30000000E+00  1.70000000E+00  1.70000000E+00
  1.30000000E+00  1.30000000E+00  1.30000000E+00  1.70000000E+00  1.70000000E+00
  1.30000000E+00  1.70000000E+00  1.70000000E+00  1.30000000E+00  1.70000000E+00
  1.70000000E+00  1.30000000E+00  1.70000000E+00  1.70000000E+00  1.30000000E+00
  1.70000000E+00  1.30000000E+00  1.30000000E+00  1.30000000E+00  1.70000000E+00
  1.70000000E+00  1.70000000E+00  1.70000000E+00  1.70000000E+00  1.30000000E+00
  1.70000000E+00  1.70000000E+00  1.70000000E+00  1.70000000E+00  1.70000000E+00
  1.30000000E+00  1.30000000E+00  1.70000000E+00  1.30000000E+00  1.70000000E+00
  1.70000000E+00  1.30000000E+00  1.30000000E+00  1.30000000E+00  1.70000000E+00
  1.70000000E+00  1.30000000E+00  1.70000000E+00  1.70000000E+00  1.30000000E+00
  1.70000000E+00  1.70000000E+00  1.30000000E+00  1.70000000E+00  1.70000000E+00
  1.30000000E+00  1.70000000E+00  1.30000000E+00  1.30000000E+00  1.30000000E+00
  1.70000000E+00  1.70000000E+00  1.70000000E+00  1.70000000E+00  1.70000000E+00
  1.30000000E+00  1.70000000E+00  1.70000000E+00  1.70000000E+00  1.70000000E+00
  1.70000000E+00  1.30000000E+00  1.30000000E+00  1.70000000E+00  1.30000000E+00
  1.70000000E+00  1.70000000E+00  1.30000000E+00  1.30000000E+00  1.30000000E+00
  1.70000000E+00  1.70000000E+00  1.30000000E+00  1.70000000E+00  1.70000000E+00
  1.30000000E+00  1.70000000E+00  1.70000000E+00  1.30000000E+00  1.70000000E+00
  1.70000000E+00  1.30000000E+00  1.70000000E+00  1.30000000E+00  1.30000000E+00
  1.30000000E+00  1.70000000E+00  1.70000000E+00  1.70000000E+00  1.70000000E+00
  1.70000000E+00  1.30000000E+00  1.70000000E+00  1.70000000E+00  1.70000000E+00
  1.70000000E+00  1.70000000E+00  1.30000000E+00  1.30000000E+00  1.70000000E+00
  1.30000000E+00  1.70000000E+00  1.70000000E+00  1.30000000E+00  1.30000000E+00
  1.30000000E+00  1.70000000E+00  1.70000000E+00  1.30000000E+00  1.70000000E+00
  1.70000000E+00  1.30000000E+00  1.70000000E+00  1.70000000E+00  1.30000000E+00
  1.70000000E+00  1.70000000E+00  1.30000000E+00  1.70000000E+00  1.30000000E+00
  1.30000000E+00  1.30000000E+00  1.70000000E+00  1.70000000E+00  1.70000000E+00
  1.70000000E+00  1.70000000E+00  1.30000000E+00  1.70000000E+00  1.70000000E+00
  1.70000000E+00  1.70000000E+00  1.70000000E+00  1.30000000E+00  1.30000000E+00
  1.70000000E+00  1.30000000E+00  1.70000000E+00  1.70000000E+00  1.30000000E+00
  1.30000000E+00  1.30000000E+00  1.70000000E+00  1.70000000E+00  1.30000000E+00
  1.70000000E+00  1.70000000E+00  1.30000000E+00  1.70000000E+00  1.70000000E+00
  1.30000000E+00  1.70000000E+00  1.70000000E+00  1.30000000E+00  1.70000000E+00
  1.30000000E+00  1.30000000E+00  1.30000000E+00  1.70000000E+00  1.70000000E+00
  1.70000000E+00  1.70000000E+00  1.70000000E+00  1.30000000E+00  1.70000000E+00
  1.70000000E+00  1.70000000E+00  1.70000000E+00  1.70000000E+00  1.30000000E+00
  1.30000000E+00  1.70000000E+00  1.30000000E+00  1.70000000E+00  1.70000000E+00
  1.30000000E+00  1.30000000E+00  1.30000000E+00  1.70000000E+00  1.70000000E+00
  1.30000000E+00  1.70000000E+00  1.70000000E+00  1.30000000E+00  1.70000000E+00
  1.70000000E+00  1.30000000E+00  1.70000000E+00  1.70000000E+00  1.30000000E+00
  1.70000000E+00  1.30000000E+00  1.30000000E+00  1.30000000E+00  1.70000000E+00
  1.70000000E+00  1.70000000E+00  1.70000000E+00  1.70000000E+00  1.30000000E+00
  1.70000000E+00  1.70000000E+00  1.70000000E+00  1.70000000E+00  1.70000000E+00
  1.30000000E+00  1.30000000E+00  1.70000000E+00  1.30000000E+00  1.70000000E+00
  1.70000000E+00  1.30000000E+00  1.30000000E+00  1.30000000E+00  1.70000000E+00
  1.70000000E+00  1.30000000E+00  1.70000000E+00  1.70000000E+00  1.30000000E+00
  1.70000000E+00  1.70000000E+00  1.30000000E+00  1.70000000E+00  1.70000000E+00
  1.30000000E+00  1.70000000E+00  1.30000000E+00  1.30000000E+00  1.30000000E+00
  1.70000000E+00  1.70000000E+00  1.70000000E+00  1.70000000E+00  1.70000000E+00
  1.30000000E+00  1.70000000E+00  1.70000000E+00  1.70000000E+00  1.70000000E+00
  1.70000000E+00  1.30000000E+00  1.30000000E+00  1.70000000E+00  1.30000000E+00
  1.70000000E+00  1.70000000E+00  1.30000000E+00  1.30000000E+00  1.30000000E+00
  1.70000000E+00  1.70000000E+00  1.30000000E+00  1.70000000E+00  1.70000000E+00
  1.30000000E+00  1.70000000E+00  1.70000000E+00  1.30000000E+00  1.70000000E+00
  1.70000000E+00  1.30000000E+00  1.70000000E+00  1.30000000E+00  1.30000000E+00
  1.30000000E+00  1.70000000E+00  1.70000000E+00  1.70000000E+00  1.70000000E+00
  1.70000000E+00  1.30000000E+00  1.70000000E+00  1.70000000E+00  1.70000000E+00
  1.70000000E+00  1.70000000E+00  1.30000000E+00  1.30000000E+00  1.70000000E+00
  1.30000000E+00  1.70000000E+00  1.70000000E+00  1.30000000E+00  1.30000000E+00
  1.30000000E+00  1.70000000E+00  1.70000000E+00  1.30000000E+00  1.70000000E+00
  1.70000000E+00  1.30000000E+00  1.70000000E+00  1.70000000E+00  1.30000000E+00
  1.70000000E+00  1.70000000E+00  1.30000000E+00  1.70000000E+00  1.30000000E+00
  1.30000000E+00  1.30000000E+00  1.70000000E+00  1.70000000E+00  1.70000000E+00
  1.70000000E+00  1.70000000E+00  1.30000000E+00  1.70000000E+00  1.70000000E+00
  1.70000000E+00  1.70000000E+00  1.70000000E+00  1.30000000E+00  1.30000000E+00
  1.70000000E+00  1.30000000E+00  1.70000000E+00  1.70000000E+00  1.30000000E+00
  1.30000000E+00  1.30000000E+00  1.70000000E+00  1.70000000E+00  1.30000000E+00
  1.70000000E+00  1.70000000E+00  1.30000000E+00  1.70000000E+00  1.70000000E+00
  1.30000000E+00  1.70000000E+00  1.70000000E+00  1.30000000E+00  1.70000000E+00
  1.30000000E+00  1.30000000E+00  1.30000000E+00  1.70000000E+00  1.70000000E+00
  1.70000000E+00  1.70000000E+00  1.70000000E+00  1.30000000E+00  1.70000000E+00
  1.70000000E+00  1.70000000E+00  1.70000000E+00  1.70000000E+00  1.30000000E+00
  1.30000000E+00  1.70000000E+00  1.30000000E+00  1.70000000E+00  1.70000000E+00
  1.30000000E+00  1.30000000E+00  1.30000000E+00  1.70000000E+00  1.70000000E+00
  1.30000000E+00  1.70000000E+00  1.70000000E+00  1.30000000E+00  1.70000000E+00
  1.70000000E+00  1.30000000E+00  1.70000000E+00  1.70000000E+00  1.30000000E+00
  1.70000000E+00  1.30000000E+00  1.30000000E+00  1.30000000E+00  1.70000000E+00
  1.70000000E+00  1.70000000E+00  1.70000000E+00  1.70000000E+00  1.30000000E+00
  1.70000000E+00  1.70000000E+00  1.70000000E+00  1.70000000E+00  1.70000000E+00
  1.30000000E+00  1.30000000E+00  1.70000000E+00  1.30000000E+00  1.70000000E+00
  1.70000000E+00  1.30000000E+00  1.30000000E+00  1.30000000E+00  1.70000000E+00
  1.70000000E+00  1.30000000E+00  1.70000000E+00  1.70000000E+00  1.30000000E+00
  1.70000000E+00  1.70000000E+00  1.30000000E+00  1.70000000E+00  1.70000000E+00
  1.30000000E+00  1.70000000E+00  1.30000000E+00  1.30000000E+00  1.30000000E+00
  1.70000000E+00  1.70000000E+00  1.70000000E+00  1.70000000E+00  1.70000000E+00
  1.30000000E+00  1.70000000E+00  1.70000000E+00  1.70000000E+00  1.70000000E+00
  1.70000000E+00  1.30000000E+00  1.30000000E+00  1.70000000E+00  1.30000000E+00
  1.70000000E+00  1.70000000E+00  1.30000000E+00  1.30000000E+00  1.30000000E+00
  1.70000000E+00  1.70000000E+00  1.30000000E+00  1.70000000E+00  1.70000000E+00
  1.30000000E+00  1.70000000E+00  1.70000000E+00  1.30000000E+00  1.70000000E+00
  1.70000000E+00  1.30000000E+00  1.70000000E+00  1.30000000E+00  1.30000000E+00
  1.30000000E+00  1.70000000E+00  1.70000000E+00  1.70000000E+00  1.70000000E+00
  1.70000000E+00  1.30000000E+00  1.70000000E+00  1.70000000E+00  1.70000000E+00
  1.70000000E+00  1.70000000E+00  1.30000000E+00  1.30000000E+00  1.70000000E+00
  1.30000000E+00  1.70000000E+00  1.70000000E+00  1.30000000E+00  1.30000000E+00
  1.30000000E+00  1.70000000E+00  1.70000000E+00  1.30000000E+00  1.70000000E+00
  1.70000000E+00  1.30000000E+00  1.70000000E+00  1.70000000E+00  1.30000000E+00
  1.70000000E+00  1.70000000E+00  1.30000000E+00  1.70000000E+00  1.30000000E+00
  1.30000000E+00  1.30000000E+00  1.70000000E+00  1.70000000E+00  1.70000000E+00
  1.70000000E+00  1.70000000E+00  1.30000000E+00  1.70000000E+00  1.70000000E+00
  1.70000000E+00  1.70000000E+00  1.70000000E+00  1.30000000E+00  1.30000000E+00
  1.70000000E+00  1.30000000E+00  1.70000000E+00  1.70000000E+00  1.30000000E+00
  1.30000000E+00  1.30000000E+00  1.70000000E+00  1.70000000E+00  1.30000000E+00
  1.70000000E+00  1.70000000E+00  1.30000000E+00  1.70000000E+00  1.70000000E+00
  1.30000000E+00  1.70000000E+00  1.70000000E+00  1.30000000E+00  1.70000000E+00
  1.30000000E+00  1.30000000E+00  1.30000000E+00  1.70000000E+00  1.70000000E+00
  1.70000000E+00  1.70000000E+00  1.70000000E+00  1.30000000E+00  1.70000000E+00
  1.70000000E+00  1.70000000E+00  1.70000000E+00  1.70000000E+00  1.30000000E+00
  1.30000000E+00  1.70000000E+00  1.30000000E+00  1.70000000E+00  1.70000000E+00
  1.30000000E+00  1.30000000E+00  1.30000000E+00  1.70000000E+00  1.70000000E+00
  1.30000000E+00  1.70000000E+00  1.70000000E+00  1.30000000E+00  1.70000000E+00
  1.70000000E+00  1.30000000E+00  1.70000000E+00  1.70000000E+00  1.30000000E+00
  1.70000000E+00  1.30000000E+00  1.30000000E+00  1.30000000E+00  1.70000000E+00
  1.70000000E+00  1.70000000E+00  1.70000000E+00  1.70000000E+00  1.30000000E+00
  1.70000000E+00  1.70000000E+00  1.70000000E+00  1.70000000E+00  1.70000000E+00
  1.30000000E+00  1.30000000E+00  1.70000000E+00  1.30000000E+00  1.70000000E+00
  1.70000000E+00  1.30000000E+00  1.30000000E+00  1.30000000E+00  1.70000000E+00
  1.70000000E+00  1.30000000E+00  1.70000000E+00  1.70000000E+00  1.30000000E+00
  1.70000000E+00  1.70000000E+00  1.30000000E+00  1.70000000E+00  1.70000000E+00
  1.30000000E+00  1.70000000E+00  1.30000000E+00  1.30000000E+00  1.30000000E+00
  1.70000000E+00  1.70000000E+00  1.70000000E+00  1.70000000E+00  1.70000000E+00
  1.30000000E+00  1.70000000E+00  1.70000000E+00  1.70000000E+00  1.70000000E+00
  1.70000000E+00  1.30000000E+00  1.30000000E+00  1.70000000E+00  1.30000000E+00
  1.70000000E+00  1.70000000E+00  1.30000000E+00  1.30000000E+00  1.30000000E+00
  1.70000000E+00  1.70000000E+00  1.30000000E+00  1.70000000E+00  1.70000000E+00
  1.30000000E+00  1.70000000E+00  1.70000000E+00  1.30000000E+00  1.70000000E+00
  1.70000000E+00  1.30000000E+00  1.70000000E+00  1.30000000E+00  1.30000000E+00
  1.30000000E+00  1.70000000E+00  1.70000000E+00  1.70000000E+00  1.70000000E+00
  1.70000000E+00  1.30000000E+00  1.70000000E+00  1.70000000E+00  1.70000000E+00
  1.70000000E+00  1.70000000E+00  1.30000000E+00  1.30000000E+00  1.70000000E+00
  1.30000000E+00  1.70000000E+00  1.70000000E+00  1.30000000E+00  1.30000000E+00
  1.30000000E+00  1.70000000E+00  1.70000000E+00  1.30000000E+00  1.70000000E+00
  1.70000000E+00  1.30000000E+00  1.70000000E+00  1.70000000E+00  1.30000000E+00
  1.70000000E+00  1.70000000E+00  1.30000000E+00  1.70000000E+00  1.30000000E+00
  1.30000000E+00  1.30000000E+00  1.70000000E+00  1.70000000E+00  1.70000000E+00
  1.70000000E+00  1.70000000E+00  1.30000000E+00  1.70000000E+00  1.70000000E+00
  1.70000000E+00  1.70000000E+00  1.70000000E+00  1.30000000E+00  1.30000000E+00
  1.70000000E+00  1.30000000E+00  1.70000000E+00  1.70000000E+00  1.30000000E+00
  1.30000000E+00  1.30000000E+00  1.70000000E+00  1.70000000E+00  1.30000000E+00
  1.70000000E+00  1.70000000E+00  1.30000000E+00  1.70000000E+00  1.70000000E+00
  1.30000000E+00  1.70000000E+00  1.70000000E+00  1.30000000E+00  1.70000000E+00
  1.30000000E+00  1.30000000E+00  1.30000000E+00  1.70000000E+00  1.70000000E+00
  1.70000000E+00  1.70000000E+00  1.70000000E+00  1.30000000E+00  1.70000000E+00
  1.70000000E+00  1.70000000E+00  1.70000000E+00  1.70000000E+00  1.30000000E+00
  1.30000000E+00  1.70000000E+00  1.30000000E+00  1.70000000E+00  1.70000000E+00
  1.30000000E+00  1.30000000E+00  1.30000000E+00  1.70000000E+00  1.70000000E+00
  1.30000000E+00  1.70000000E+00  1.70000000E+00  1.30000000E+00  1.70000000E+00
  1.70000000E+00  1.30000000E+00  1.70000000E+00  1.70000000E+00  1.30000000E+00
  1.70000000E+00  1.30000000E+00  1.30000000E+00  1.30000000E+00  1.70000000E+00
  1.70000000E+00  1.70000000E+00  1.70000000E+00  1.70000000E+00  1.30000000E+00
  1.70000000E+00  1.70000000E+00  1.70000000E+00  1.70000000E+00  1.70000000E+00
  1.30000000E+00  1.30000000E+00  1.70000000E+00  1.30000000E+00  1.70000000E+00
  1.70000000E+00  1.30000000E+00  1.30000000E+00  1.30000000E+00  1.70000000E+00
  1.70000000E+00  1.30000000E+00  1.70000000E+00  1.70000000E+00  1.30000000E+00
  1.70000000E+00  1.70000000E+00  1.30000000E+00  1.70000000E+00  1.70000000E+00
  1.30000000E+00  1.70000000E+00  1.30000000E+00  1.30000000E+00  1.30000000E+00
  1.70000000E+00  1.70000000E+00  1.70000000E+00  1.70000000E+00  1.70000000E+00
  1.30000000E+00  1.70000000E+00  1.70000000E+00  1.70000000E+00  1.70000000E+00
  1.70000000E+00  1.30000000E+00  1.30000000E+00  1.70000000E+00  1.30000000E+00
  1.70000000E+00  1.70000000E+00  1.30000000E+00  1.30000000E+00  1.30000000E+00
  1.70000000E+00  1.70000000E+00  1.30000000E+00  1.70000000E+00  1.70000000E+00
  1.30000000E+00  1.70000000E+00  1.70000000E+00  1.30000000E+00  1.70000000E+00
  1.70000000E+00  1.30000000E+00  1.70000000E+00  1.30000000E+00  1.30000000E+00
  1.30000000E+00  1.70000000E+00  1.70000000E+00  1.70000000E+00  1.70000000E+00
  1.70000000E+00  1.30000000E+00  1.70000000E+00  1.70000000E+00  1.70000000E+00
  1.70000000E+00  1.70000000E+00  1.30000000E+00  1.30000000E+00  1.70000000E+00
  1.30000000E+00  1.70000000E+00  1.70000000E+00  1.30000000E+00  1.30000000E+00
  1.30000000E+00  1.70000000E+00  1.70000000E+00  1.30000000E+00  1.70000000E+00
  1.70000000E+00  1.30000000E+00  1.70000000E+00  1.70000000E+00  1.30000000E+00
  1.70000000E+00  1.70000000E+00  1.30000000E+00  1.70000000E+00  1.30000000E+00
  1.30000000E+00  1.30000000E+00  1.70000000E+00  1.70000000E+00  1.70000000E+00
  1.70000000E+00  1.70000000E+00  1.30000000E+00  1.70000000E+00  1.70000000E+00
  1.70000000E+00  1.70000000E+00  1.70000000E+00  1.30000000E+00  1.30000000E+00
  1.70000000E+00  1.30000000E+00  1.70000000E+00  1.70000000E+00  1.30000000E+00
  1.30000000E+00  1.30000000E+00  1.70000000E+00  1.70000000E+00  1.30000000E+00
  1.70000000E+00  1.70000000E+00  1.30000000E+00  1.70000000E+00  1.70000000E+00
  1.30000000E+00  1.70000000E+00  1.70000000E+00  1.30000000E+00  1.70000000E+00
  1.30000000E+00  1.30000000E+00  1.30000000E+00  1.70000000E+00  1.70000000E+00
  1.70000000E+00  1.70000000E+00  1.70000000E+00  1.30000000E+00  1.70000000E+00
  1.70000000E+00  1.70000000E+00  1.70000000E+00  1.70000000E+00  1.30000000E+00
  1.30000000E+00  1.70000000E+00  1.30000000E+00  1.70000000E+00  1.70000000E+00
  1.30000000E+00  1.30000000E+00  1.30000000E+00  1.70000000E+00  1.70000000E+00
  1.30000000E+00  1.70000000E+00  1.70000000E+00  1.30000000E+00  1.70000000E+00
  1.70000000E+00  1.30000000E+00  1.70000000E+00  1.70000000E+00  1.30000000E+00
  1.70000000E+00  1.30000000E+00  1.30000000E+00  1.30000000E+00  1.70000000E+00
  1.70000000E+00  1.70000000E+00  1.70000000E+00  1.70000000E+00  1.30000000E+00
  1.70000000E+00  1.70000000E+00  1.70000000E+00  1.70000000E+00  1.70000000E+00
  1.30000000E+00  1.30000000E+00  1.70000000E+00  1.30000000E+00  1.70000000E+00
  1.70000000E+00  1.30000000E+00  1.30000000E+00  1.30000000E+00  1.70000000E+00
  1.70000000E+00  1.30000000E+00  1.70000000E+00  1.70000000E+00  1.30000000E+00
  1.70000000E+00  1.70000000E+00  1.30000000E+00  1.70000000E+00  1.70000000E+00
  1.30000000E+00  1.70000000E+00  1.30000000E+00  1.30000000E+00  1.30000000E+00
  1.70000000E+00  1.70000000E+00  1.70000000E+00  1.70000000E+00  1.70000000E+00
  1.30000000E+00  1.70000000E+00  1.70000000E+00  1.70000000E+00  1.70000000E+00
  1.70000000E+00  1.30000000E+00  1.30000000E+00  1.70000000E+00  1.30000000E+00
  1.70000000E+00  1.70000000E+00  1.30000000E+00  1.30000000E+00  1.30000000E+00
  1.70000000E+00  1.70000000E+00  1.30000000E+00  1.70000000E+00  1.70000000E+00
  1.30000000E+00  1.70000000E+00  1.70000000E+00  1.30000000E+00  1.70000000E+00
  1.70000000E+00  1.30000000E+00  1.70000000E+00  1.30000000E+00  1.30000000E+00
  1.30000000E+00  1.70000000E+00  1.70000000E+00  1.70000000E+00  1.70000000E+00
  1.70000000E+00  1.30000000E+00  1.70000000E+00  1.70000000E+00  1.70000000E+00
  1.70000000E+00  1.70000000E+00  1.30000000E+00  1.30000000E+00  1.70000000E+00
  1.30000000E+00  1.70000000E+00  1.70000000E+00  1.30000000E+00  1.30000000E+00
  1.30000000E+00  1.70000000E+00  1.70000000E+00  1.30000000E+00  1.70000000E+00
  1.70000000E+00  1.30000000E+00  1.70000000E+00  1.70000000E+00  1.30000000E+00
  1.70000000E+00  1.70000000E+00  1.30000000E+00  1.70000000E+00  1.30000000E+00
  1.30000000E+00  1.30000000E+00  1.70000000E+00  1.70000000E+00  1.70000000E+00
  1.70000000E+00  1.70000000E+00  1.30000000E+00  1.70000000E+00  1.70000000E+00
  1.70000000E+00  1.70000000E+00  1.70000000E+00  1.30000000E+00  1.30000000E+00
  1.70000000E+00  1.30000000E+00  1.70000000E+00  1.70000000E+00  1.30000000E+00
  1.30000000E+00  1.30000000E+00  1.70000000E+00  1.70000000E+00  1.30000000E+00
  1.70000000E+00  1.70000000E+00  1.30000000E+00  1.70000000E+00  1.70000000E+00
  1.30000000E+00  1.70000000E+00  1.70000000E+00  1.30000000E+00  1.70000000E+00
  1.30000000E+00  1.30000000E+00  1.30000000E+00  1.70000000E+00  1.70000000E+00
  1.70000000E+00  1.70000000E+00  1.70000000E+00  1.30000000E+00  1.70000000E+00
  1.70000000E+00  1.70000000E+00  1.70000000E+00  1.70000000E+00  1.30000000E+00
  1.30000000E+00  1.70000000E+00  1.30000000E+00  1.70000000E+00  1.70000000E+00
  1.30000000E+00  1.30000000E+00  1.30000000E+00  1.70000000E+00  1.70000000E+00
  1.30000000E+00  1.70000000E+00  1.70000000E+00  1.30000000E+00  1.70000000E+00
  1.70000000E+00  1.30000000E+00  1.70000000E+00  1.70000000E+00  1.30000000E+00
  1.70000000E+00  1.30000000E+00  1.30000000E+00  1.30000000E+00  1.70000000E+00
  1.70000000E+00  1.70000000E+00  1.70000000E+00  1.70000000E+00  1.30000000E+00
  1.70000000E+00  1.70000000E+00  1.70000000E+00  1.70000000E+00  1.70000000E+00
  1.30000000E+00  1.30000000E+00  1.70000000E+00  1.30000000E+00  1.70000000E+00
  1.70000000E+00  1.30000000E+00  1.30000000E+00  1.30000000E+00  1.70000000E+00
  1.70000000E+00  1.30000000E+00  1.70000000E+00  1.70000000E+00  1.30000000E+00
  1.70000000E+00  1.70000000E+00  1.30000000E+00  1.70000000E+00  1.70000000E+00
  1.30000000E+00  1.70000000E+00  1.30000000E+00  1.30000000E+00  1.30000000E+00
  1.70000000E+00  1.70000000E+00  1.70000000E+00  1.70000000E+00  1.70000000E+00
  1.30000000E+00  1.70000000E+00  1.70000000E+00  1.70000000E+00  1.70000000E+00
  1.70000000E+00  1.30000000E+00  1.30000000E+00  1.70000000E+00  1.30000000E+00
  1.70000000E+00  1.70000000E+00  1.30000000E+00  1.30000000E+00  1.30000000E+00
  1.70000000E+00  1.70000000E+00  1.30000000E+00  1.70000000E+00  1.70000000E+00
  1.30000000E+00  1.70000000E+00  1.70000000E+00  1.30000000E+00  1.70000000E+00
  1.70000000E+00  1.30000000E+00  1.70000000E+00  1.30000000E+00  1.30000000E+00
  1.30000000E+00  1.70000000E+00  1.70000000E+00  1.70000000E+00  1.70000000E+00
  1.70000000E+00  1.30000000E+00  1.70000000E+00  1.70000000E+00  1.70000000E+00
  1.70000000E+00  1.70000000E+00  1.30000000E+00  1.30000000E+00  1.70000000E+00
  1.30000000E+00  1.70000000E+00  1.70000000E+00  1.30000000E+00  1.30000000E+00
  1.30000000E+00  1.70000000E+00  1.70000000E+00  1.30000000E+00  1.70000000E+00
  1.70000000E+00  1.30000000E+00  1.70000000E+00  1.70000000E+00  1.30000000E+00
  1.70000000E+00  1.70000000E+00  1.30000000E+00  1.70000000E+00  1.30000000E+00
  1.30000000E+00  1.30000000E+00  1.70000000E+00  1.70000000E+00  1.70000000E+00
  1.70000000E+00  1.70000000E+00  1.30000000E+00  1.70000000E+00  1.70000000E+00
  1.70000000E+00  1.70000000E+00  1.70000000E+00  1.30000000E+00  1.30000000E+00
  1.70000000E+00  1.30000000E+00  1.70000000E+00  1.70000000E+00  1.30000000E+00
  1.30000000E+00  1.30000000E+00  1.70000000E+00  1.70000000E+00  1.30000000E+00
  1.70000000E+00  1.70000000E+00  1.30000000E+00  1.70000000E+00  1.70000000E+00
  1.30000000E+00  1.70000000E+00  1.70000000E+00  1.30000000E+00  1.70000000E+00
  1.30000000E+00  1.30000000E+00  1.30000000E+00  1.70000000E+00  1.70000000E+00
  1.70000000E+00  1.70000000E+00  1.70000000E+00  1.30000000E+00  1.70000000E+00
  1.70000000E+00  1.70000000E+00  1.70000000E+00  1.70000000E+00  1.30000000E+00
  1.30000000E+00  1.70000000E+00  1.30000000E+00  1.70000000E+00  1.70000000E+00
  1.30000000E+00  1.30000000E+00  1.30000000E+00  1.70000000E+00  1.70000000E+00
  1.30000000E+00  1.70000000E+00  1.70000000E+00  1.30000000E+00  1.70000000E+00
  1.70000000E+00  1.30000000E+00  1.70000000E+00  1.70000000E+00  1.30000000E+00
  1.70000000E+00  1.30000000E+00  1.30000000E+00  1.30000000E+00  1.70000000E+00
  1.70000000E+00  1.70000000E+00  1.70000000E+00  1.70000000E+00  1.30000000E+00
  1.70000000E+00  1.70000000E+00  1.70000000E+00  1.70000000E+00  1.70000000E+00
  1.30000000E+00  1.30000000E+00  1.70000000E+00  1.30000000E+00  1.70000000E+00
  1.70000000E+00  1.30000000E+00  1.30000000E+00  1.30000000E+00  1.70000000E+00
  1.70000000E+00  1.30000000E+00  1.70000000E+00  1.70000000E+00  1.30000000E+00
  1.70000000E+00  1.70000000E+00  1.30000000E+00  1.70000000E+00  1.70000000E+00
  1.30000000E+00  1.70000000E+00  1.30000000E+00  1.30000000E+00  1.30000000E+00
  1.70000000E+00  1.70000000E+00  1.70000000E+00  1.70000000E+00  1.70000000E+00
  1.30000000E+00  1.70000000E+00  1.70000000E+00  1.70000000E+00  1.70000000E+00
  1.70000000E+00  1.30000000E+00  1.30000000E+00  1.70000000E+00  1.30000000E+00
  1.70000000E+00  1.70000000E+00  1.30000000E+00  1.30000000E+00  1.30000000E+00
  1.70000000E+00  1.70000000E+00  1.30000000E+00  1.70000000E+00  1.70000000E+00
  1.30000000E+00  1.70000000E+00  1.70000000E+00  1.30000000E+00  1.70000000E+00
  1.70000000E+00  1.30000000E+00  1.70000000E+00  1.30000000E+00  1.30000000E+00
  1.30000000E+00  1.70000000E+00  1.70000000E+00  1.70000000E+00  1.70000000E+00
  1.70000000E+00  1.30000000E+00  1.70000000E+00  1.70000000E+00  1.70000000E+00
  1.70000000E+00  1.70000000E+00  1.30000000E+00  1.30000000E+00  1.70000000E+00
  1.30000000E+00  1.70000000E+00  1.70000000E+00  1.30000000E+00  1.30000000E+00
  1.30000000E+00  1.70000000E+00  1.70000000E+00  1.30000000E+00  1.70000000E+00
  1.70000000E+00  1.30000000E+00  1.70000000E+00  1.70000000E+00  1.30000000E+00
  1.70000000E+00  1.70000000E+00  1.30000000E+00  1.70000000E+00  1.30000000E+00
  1.30000000E+00  1.30000000E+00  1.70000000E+00  1.70000000E+00  1.70000000E+00
  1.70000000E+00  1.70000000E+00  1.30000000E+00  1.70000000E+00  1.70000000E+00
  1.70000000E+00  1.70000000E+00  1.70000000E+00  1.30000000E+00  1.30000000E+00
  1.70000000E+00  1.30000000E+00  1.70000000E+00  1.70000000E+00  1.30000000E+00
  1.30000000E+00  1.30000000E+00  1.70000000E+00  1.70000000E+00  1.30000000E+00
  1.70000000E+00  1.70000000E+00  1.30000000E+00  1.70000000E+00  1.70000000E+00
  1.30000000E+00  1.70000000E+00  1.70000000E+00  1.30000000E+00  1.70000000E+00
  1.30000000E+00  1.30000000E+00  1.30000000E+00  1.70000000E+00  1.70000000E+00
  1.70000000E+00  1.70000000E+00  1.70000000E+00  1.30000000E+00  1.70000000E+00
  1.70000000E+00  1.70000000E+00  1.70000000E+00  1.70000000E+00  1.30000000E+00
  1.30000000E+00  1.70000000E+00  1.30000000E+00  1.70000000E+00  1.70000000E+00
  1.30000000E+00  1.30000000E+00  1.30000000E+00  1.70000000E+00  1.70000000E+00
  1.30000000E+00  1.70000000E+00  1.70000000E+00  1.30000000E+00  1.70000000E+00
  1.70000000E+00  1.30000000E+00  1.70000000E+00  1.70000000E+00  1.30000000E+00
  1.70000000E+00  1.30000000E+00  1.30000000E+00  1.30000000E+00  1.70000000E+00
  1.70000000E+00  1.70000000E+00  1.70000000E+00  1.70000000E+00  1.30000000E+00
  1.70000000E+00  1.70000000E+00  1.70000000E+00  1.70000000E+00  1.70000000E+00
  1.30000000E+00  1.30000000E+00  1.70000000E+00  1.30000000E+00  1.70000000E+00
  1.70000000E+00  1.30000000E+00  1.30000000E+00  1.30000000E+00  1.70000000E+00
  1.70000000E+00  1.30000000E+00  1.70000000E+00  1.70000000E+00  1.30000000E+00
  1.70000000E+00  1.70000000E+00  1.30000000E+00  1.70000000E+00  1.70000000E+00
  1.30000000E+00  1.70000000E+00  1.30000000E+00  1.30000000E+00  1.30000000E+00
  1.70000000E+00  1.70000000E+00  1.70000000E+00  1.70000000E+00  1.70000000E+00
  1.30000000E+00  1.70000000E+00  1.70000000E+00  1.70000000E+00  1.70000000E+00
  1.70000000E+00  1.30000000E+00  1.30000000E+00  1.70000000E+00  1.30000000E+00
  1.70000000E+00  1.70000000E+00  1.30000000E+00  1.30000000E+00  1.30000000E+00
  1.70000000E+00  1.70000000E+00  1.30000000E+00  1.70000000E+00  1.70000000E+00
  1.30000000E+00  1.70000000E+00  1.70000000E+00  1.30000000E+00  1.70000000E+00
  1.70000000E+00  1.30000000E+00  1.70000000E+00  1.30000000E+00  1.30000000E+00
  1.30000000E+00  1.70000000E+00  1.70000000E+00  1.70000000E+00  1.70000000E+00
  1.70000000E+00  1.30000000E+00  1.70000000E+00  1.70000000E+00  1.70000000E+00
  1.70000000E+00  1.70000000E+00  1.30000000E+00  1.30000000E+00  1.70000000E+00
  1.30000000E+00  1.70000000E+00  1.70000000E+00  1.30000000E+00  1.30000000E+00
  1.30000000E+00  1.70000000E+00  1.70000000E+00  1.30000000E+00  1.70000000E+00
  1.70000000E+00  1.30000000E+00  1.70000000E+00  1.70000000E+00  1.30000000E+00
  1.70000000E+00  1.70000000E+00  1.30000000E+00  1.70000000E+00  1.30000000E+00
  1.30000000E+00  1.30000000E+00  1.70000000E+00  1.70000000E+00  1.70000000E+00
  1.70000000E+00  1.70000000E+00  1.30000000E+00  1.70000000E+00  1.70000000E+00
  1.70000000E+00  1.70000000E+00  1.70000000E+00  1.30000000E+00  1.30000000E+00
  1.70000000E+00  1.30000000E+00  1.70000000E+00  1.70000000E+00  1.30000000E+00
  1.30000000E+00  1.30000000E+00  1.70000000E+00  1.70000000E+00  1.30000000E+00
  1.70000000E+00  1.70000000E+00  1.30000000E+00  1.70000000E+00  1.70000000E+00
  1.30000000E+00  1.70000000E+00  1.70000000E+00  1.30000000E+00  1.70000000E+00
  1.30000000E+00  1.30000000E+00  1.30000000E+00  1.70000000E+00  1.70000000E+00
  1.70000000E+00  1.70000000E+00  1.70000000E+00  1.30000000E+00  1.70000000E+00
  1.70000000E+00  1.70000000E+00  1.70000000E+00  1.70000000E+00  1.30000000E+00
  1.30000000E+00  1.70000000E+00  1.30000000E+00  1.70000000E+00  1.70000000E+00
  1.30000000E+00  1.30000000E+00  1.30000000E+00  1.70000000E+00  1.70000000E+00
  1.30000000E+00  1.70000000E+00  1.70000000E+00  1.30000000E+00  1.70000000E+00
  1.70000000E+00  1.30000000E+00  1.70000000E+00  1.70000000E+00  1.30000000E+00
  1.70000000E+00  1.30000000E+00  1.30000000E+00  1.30000000E+00  1.70000000E+00
  1.70000000E+00  1.70000000E+00  1.70000000E+00  1.70000000E+00  1.30000000E+00
  1.70000000E+00  1.70000000E+00  1.70000000E+00  1.70000000E+00  1.70000000E+00
  1.30000000E+00  1.30000000E+00  1.70000000E+00  1.30000000E+00  1.70000000E+00
  1.70000000E+00  1.30000000E+00  1.30000000E+00  1.30000000E+00  1.70000000E+00
  1.70000000E+00  1.30000000E+00  1.70000000E+00  1.70000000E+00  1.30000000E+00
  1.70000000E+00  1.70000000E+00  1.30000000E+00  1.70000000E+00  1.70000000E+00
  1.30000000E+00  1.70000000E+00  1.30000000E+00  1.30000000E+00  1.30000000E+00
  1.70000000E+00  1.70000000E+00  1.70000000E+00  1.70000000E+00  1.70000000E+00
  1.30000000E+00  1.70000000E+00  1.70000000E+00  1.70000000E+00  1.70000000E+00
  1.70000000E+00  1.30000000E+00  1.30000000E+00  1.70000000E+00  1.30000000E+00
  1.70000000E+00  1.70000000E+00  1.30000000E+00  1.30000000E+00  1.30000000E+00
  1.70000000E+00  1.70000000E+00  1.30000000E+00  1.70000000E+00  1.70000000E+00
  1.30000000E+00  1.70000000E+00  1.70000000E+00  1.30000000E+00  1.70000000E+00
  1.70000000E+00  1.30000000E+00  1.70000000E+00  1.30000000E+00  1.30000000E+00
  1.30000000E+00  1.70000000E+00  1.70000000E+00  1.70000000E+00  1.70000000E+00
  1.70000000E+00  1.30000000E+00  1.70000000E+00  1.70000000E+00  1.70000000E+00
  1.70000000E+00  1.70000000E+00  1.30000000E+00  1.30000000E+00  1.70000000E+00
  1.30000000E+00  1.70000000E+00  1.70000000E+00  1.30000000E+00  1.30000000E+00
  1.30000000E+00  1.70000000E+00  1.70000000E+00  1.30000000E+00  1.70000000E+00
  1.70000000E+00  1.30000000E+00  1.70000000E+00  1.70000000E+00  1.30000000E+00
  1.70000000E+00  1.70000000E+00  1.30000000E+00  1.70000000E+00  1.30000000E+00
  1.30000000E+00  1.30000000E+00  1.70000000E+00  1.70000000E+00  1.70000000E+00
  1.70000000E+00  1.70000000E+00  1.30000000E+00  1.70000000E+00  1.70000000E+00
  1.70000000E+00  1.70000000E+00  1.70000000E+00  1.30000000E+00  1.30000000E+00
  1.70000000E+00  1.30000000E+00  1.70000000E+00  1.70000000E+00  1.30000000E+00
  1.30000000E+00  1.30000000E+00  1.70000000E+00  1.70000000E+00  1.30000000E+00
  1.70000000E+00  1.70000000E+00  1.30000000E+00  1.70000000E+00  1.70000000E+00
  1.30000000E+00  1.70000000E+00  1.70000000E+00  1.30000000E+00  1.70000000E+00
  1.30000000E+00  1.30000000E+00  1.30000000E+00  1.70000000E+00  1.70000000E+00
  1.70000000E+00  1.70000000E+00  1.70000000E+00  1.30000000E+00  1.70000000E+00
  1.70000000E+00  1.70000000E+00  1.70000000E+00  1.70000000E+00  1.30000000E+00
  1.30000000E+00  1.70000000E+00  1.30000000E+00  1.70000000E+00  1.70000000E+00
  1.30000000E+00  1.30000000E+00  1.30000000E+00  1.70000000E+00  1.70000000E+00
  1.30000000E+00  1.70000000E+00  1.70000000E+00  1.30000000E+00  1.70000000E+00
  1.70000000E+00  1.30000000E+00  1.70000000E+00  1.70000000E+00  1.30000000E+00
  1.70000000E+00  1.30000000E+00  1.30000000E+00  1.30000000E+00  1.70000000E+00
  1.70000000E+00  1.70000000E+00  1.70000000E+00  1.70000000E+00  1.30000000E+00
  1.70000000E+00  1.70000000E+00  1.70000000E+00  1.70000000E+00  1.70000000E+00
  1.30000000E+00  1.30000000E+00  1.70000000E+00  1.30000000E+00  1.70000000E+00
  1.70000000E+00  1.30000000E+00  1.30000000E+00  1.30000000E+00  1.70000000E+00
  1.70000000E+00  1.30000000E+00  1.70000000E+00  1.70000000E+00  1.30000000E+00
  1.70000000E+00  1.70000000E+00  1.30000000E+00  1.70000000E+00  1.70000000E+00
  1.30000000E+00  1.70000000E+00  1.30000000E+00  1.30000000E+00  1.30000000E+00
  1.70000000E+00  1.70000000E+00  1.70000000E+00  1.70000000E+00  1.70000000E+00
  1.30000000E+00  1.70000000E+00  1.70000000E+00  1.70000000E+00  1.70000000E+00
  1.70000000E+00  1.30000000E+00  1.30000000E+00  1.70000000E+00  1.30000000E+00
  1.70000000E+00  1.70000000E+00  1.30000000E+00  1.30000000E+00  1.30000000E+00
  1.70000000E+00  1.70000000E+00  1.30000000E+00  1.70000000E+00  1.70000000E+00
  1.30000000E+00  1.70000000E+00  1.70000000E+00  1.30000000E+00  1.70000000E+00
  1.70000000E+00  1.30000000E+00  1.70000000E+00  1.30000000E+00  1.30000000E+00
  1.30000000E+00  1.70000000E+00  1.70000000E+00  1.70000000E+00  1.70000000E+00
  1.70000000E+00  1.30000000E+00  1.70000000E+00  1.70000000E+00  1.70000000E+00
  1.70000000E+00  1.70000000E+00  1.30000000E+00  1.30000000E+00  1.70000000E+00
  1.30000000E+00  1.70000000E+00  1.70000000E+00  1.30000000E+00  1.30000000E+00
  1.30000000E+00  1.70000000E+00  1.70000000E+00  1.30000000E+00  1.70000000E+00
  1.70000000E+00  1.30000000E+00  1.70000000E+00  1.70000000E+00  1.30000000E+00
  1.70000000E+00  1.70000000E+00  1.30000000E+00  1.70000000E+00  1.30000000E+00
  1.30000000E+00  1.30000000E+00  1.70000000E+00  1.70000000E+00  1.70000000E+00
  1.70000000E+00  1.70000000E+00  1.30000000E+00  1.70000000E+00  1.70000000E+00
  1.70000000E+00  1.70000000E+00  1.70000000E+00  1.30000000E+00  1.30000000E+00
  1.70000000E+00  1.30000000E+00  1.70000000E+00  1.70000000E+00  1.30000000E+00
  1.30000000E+00  1.30000000E+00  1.70000000E+00  1.70000000E+00  1.30000000E+00
  1.70000000E+00  1.70000000E+00  1.30000000E+00  1.70000000E+00  1.70000000E+00
  1.30000000E+00  1.70000000E+00  1.70000000E+00  1.30000000E+00  1.70000000E+00
  1.30000000E+00  1.30000000E+00  1.30000000E+00  1.70000000E+00  1.70000000E+00
  1.70000000E+00  1.70000000E+00  1.70000000E+00  1.30000000E+00  1.70000000E+00
  1.70000000E+00  1.70000000E+00  1.70000000E+00  1.70000000E+00  1.30000000E+00
  1.30000000E+00  1.70000000E+00  1.30000000E+00  1.70000000E+00  1.70000000E+00
  1.30000000E+00  1.30000000E+00  1.30000000E+00  1.70000000E+00  1.70000000E+00
  1.30000000E+00  1.70000000E+00  1.70000000E+00  1.30000000E+00  1.70000000E+00
  1.70000000E+00  1.30000000E+00  1.70000000E+00  1.70000000E+00  1.30000000E+00
  1.70000000E+00  1.30000000E+00  1.30000000E+00  1.30000000E+00  1.70000000E+00
  1.70000000E+00  1.70000000E+00  1.70000000E+00  1.70000000E+00  1.30000000E+00
  1.70000000E+00  1.70000000E+00  1.70000000E+00  1.70000000E+00  1.70000000E+00
  1.30000000E+00  1.30000000E+00  1.70000000E+00  1.30000000E+00  1.70000000E+00
  1.70000000E+00  1.30000000E+00  1.30000000E+00  1.30000000E+00  1.70000000E+00
  1.70000000E+00  1.30000000E+00  1.70000000E+00  1.70000000E+00  1.30000000E+00
  1.70000000E+00  1.70000000E+00  1.30000000E+00  1.70000000E+00  1.70000000E+00
  1.30000000E+00  1.70000000E+00  1.30000000E+00  1.30000000E+00  1.30000000E+00
  1.70000000E+00  1.70000000E+00  1.70000000E+00  1.70000000E+00  1.70000000E+00
  1.30000000E+00  1.70000000E+00  1.70000000E+00  1.70000000E+00  1.70000000E+00
  1.70000000E+00  1.30000000E+00  1.30000000E+00  1.70000000E+00  1.30000000E+00
  1.70000000E+00  1.70000000E+00  1.30000000E+00  1.30000000E+00  1.30000000E+00
  1.70000000E+00  1.70000000E+00  1.30000000E+00  1.70000000E+00  1.70000000E+00
  1.30000000E+00  1.70000000E+00  1.70000000E+00  1.30000000E+00  1.70000000E+00
  1.70000000E+00  1.30000000E+00  1.70000000E+00  1.30000000E+00  1.30000000E+00
  1.30000000E+00  1.70000000E+00  1.70000000E+00  1.70000000E+00  1.70000000E+00
  1.70000000E+00  1.30000000E+00  1.70000000E+00  1.70000000E+00  1.70000000E+00
  1.70000000E+00  1.70000000E+00  1.30000000E+00  1.30000000E+00  1.70000000E+00
  1.30000000E+00  1.70000000E+00  1.70000000E+00  1.30000000E+00  1.30000000E+00
  1.30000000E+00  1.70000000E+00  1.70000000E+00  1.30000000E+00  1.70000000E+00
  1.70000000E+00  1.30000000E+00  1.70000000E+00  1.70000000E+00  1.30000000E+00
  1.70000000E+00  1.70000000E+00  1.30000000E+00  1.70000000E+00  1.30000000E+00
  1.30000000E+00  1.30000000E+00  1.70000000E+00  1.70000000E+00  1.70000000E+00
  1.70000000E+00  1.70000000E+00  1.30000000E+00  1.70000000E+00  1.70000000E+00
  1.70000000E+00  1.70000000E+00  1.70000000E+00  1.30000000E+00  1.30000000E+00
  1.70000000E+00  1.30000000E+00  1.70000000E+00  1.70000000E+00  1.30000000E+00
  1.30000000E+00  1.30000000E+00  1.70000000E+00  1.70000000E+00  1.30000000E+00
  1.70000000E+00  1.70000000E+00  1.30000000E+00  1.70000000E+00  1.70000000E+00
  1.30000000E+00  1.70000000E+00  1.70000000E+00  1.30000000E+00  1.70000000E+00
  1.30000000E+00  1.30000000E+00  1.30000000E+00  1.70000000E+00  1.70000000E+00
  1.70000000E+00  1.70000000E+00  1.70000000E+00  1.30000000E+00  1.70000000E+00
  1.70000000E+00  1.70000000E+00  1.70000000E+00  1.70000000E+00  1.30000000E+00
  1.30000000E+00  1.70000000E+00  1.30000000E+00  1.70000000E+00  1.70000000E+00
  1.30000000E+00  1.30000000E+00  1.30000000E+00  1.70000000E+00  1.70000000E+00
  1.30000000E+00  1.70000000E+00  1.70000000E+00  1.30000000E+00  1.70000000E+00
  1.70000000E+00  1.30000000E+00  1.70000000E+00  1.70000000E+00  1.30000000E+00
  1.70000000E+00  1.30000000E+00  1.30000000E+00  1.30000000E+00  1.70000000E+00
  1.70000000E+00  1.70000000E+00  1.70000000E+00  1.70000000E+00  1.30000000E+00
  1.70000000E+00  1.70000000E+00  1.70000000E+00  1.70000000E+00  1.70000000E+00
  1.30000000E+00  1.30000000E+00  1.70000000E+00  1.30000000E+00  1.70000000E+00
  1.70000000E+00  1.30000000E+00  1.30000000E+00  1.30000000E+00  1.70000000E+00
  1.70000000E+00  1.30000000E+00  1.70000000E+00  1.70000000E+00  1.30000000E+00
  1.70000000E+00  1.70000000E+00  1.30000000E+00  1.70000000E+00  1.70000000E+00
  1.30000000E+00  1.70000000E+00  1.30000000E+00  1.30000000E+00  1.30000000E+00
  1.70000000E+00  1.70000000E+00  1.70000000E+00  1.70000000E+00  1.70000000E+00
  1.30000000E+00  1.70000000E+00  1.70000000E+00  1.70000000E+00  1.70000000E+00
  1.70000000E+00  1.30000000E+00  1.30000000E+00  1.70000000E+00  1.30000000E+00
  1.70000000E+00  1.70000000E+00  1.30000000E+00  1.30000000E+00  1.30000000E+00
  1.70000000E+00  1.70000000E+00  1.30000000E+00  1.70000000E+00  1.70000000E+00
  1.30000000E+00  1.70000000E+00  1.70000000E+00  1.30000000E+00  1.70000000E+00
  1.70000000E+00  1.30000000E+00  1.70000000E+00  1.30000000E+00  1.30000000E+00
  1.30000000E+00  1.70000000E+00  1.70000000E+00  1.70000000E+00  1.70000000E+00
  1.70000000E+00  1.30000000E+00  1.70000000E+00  1.70000000E+00  1.70000000E+00
  1.70000000E+00  1.70000000E+00  1.30000000E+00  1.30000000E+00  1.70000000E+00
  1.30000000E+00  1.70000000E+00  1.70000000E+00  1.30000000E+00  1.30000000E+00
  1.30000000E+00  1.70000000E+00  1.70000000E+00  1.30000000E+00  1.70000000E+00
  1.70000000E+00  1.30000000E+00  1.70000000E+00  1.70000000E+00  1.30000000E+00
  1.70000000E+00  1.70000000E+00  1.30000000E+00  1.70000000E+00  1.30000000E+00
  1.30000000E+00  1.30000000E+00  1.70000000E+00  1.70000000E+00  1.70000000E+00
  1.70000000E+00  1.70000000E+00  1.30000000E+00  1.70000000E+00  1.70000000E+00
  1.70000000E+00  1.70000000E+00  1.70000000E+00  1.30000000E+00  1.30000000E+00
  1.70000000E+00  1.30000000E+00  1.70000000E+00  1.70000000E+00  1.30000000E+00
  1.30000000E+00  1.30000000E+00  1.70000000E+00  1.70000000E+00  1.30000000E+00
  1.70000000E+00  1.70000000E+00  1.30000000E+00  1.70000000E+00  1.70000000E+00
  1.30000000E+00  1.70000000E+00  1.70000000E+00  1.30000000E+00  1.70000000E+00
  1.30000000E+00  1.30000000E+00  1.30000000E+00  1.70000000E+00  1.70000000E+00
  1.70000000E+00  1.70000000E+00  1.70000000E+00  1.30000000E+00  1.70000000E+00
  1.70000000E+00  1.70000000E+00  1.70000000E+00  1.70000000E+00  1.30000000E+00
  1.30000000E+00  1.70000000E+00  1.30000000E+00  1.70000000E+00  1.70000000E+00
  1.30000000E+00  1.30000000E+00  1.30000000E+00  1.70000000E+00  1.70000000E+00
  1.30000000E+00  1.70000000E+00  1.70000000E+00  1.30000000E+00  1.70000000E+00
  1.70000000E+00  1.30000000E+00  1.70000000E+00  1.70000000E+00  1.30000000E+00
  1.70000000E+00  1.30000000E+00  1.30000000E+00  1.30000000E+00  1.70000000E+00
  1.70000000E+00  1.70000000E+00  1.70000000E+00  1.70000000E+00  1.30000000E+00
  1.70000000E+00  1.70000000E+00  1.70000000E+00  1.70000000E+00  1.70000000E+00
  1.30000000E+00  1.30000000E+00  1.70000000E+00  1.30000000E+00  1.70000000E+00
  1.70000000E+00  1.30000000E+00  1.30000000E+00  1.30000000E+00  1.70000000E+00
  1.70000000E+00  1.30000000E+00  1.70000000E+00  1.70000000E+00  1.30000000E+00
  1.70000000E+00  1.70000000E+00  1.30000000E+00  1.70000000E+00  1.70000000E+00
  1.30000000E+00  1.70000000E+00  1.30000000E+00  1.30000000E+00  1.30000000E+00
  1.70000000E+00  1.70000000E+00  1.70000000E+00  1.70000000E+00  1.70000000E+00
  1.30000000E+00  1.70000000E+00  1.70000000E+00  1.70000000E+00  1.70000000E+00
  1.70000000E+00  1.30000000E+00  1.30000000E+00  1.70000000E+00  1.30000000E+00
  1.70000000E+00  1.70000000E+00  1.30000000E+00  1.30000000E+00  1.30000000E+00
  1.70000000E+00  1.70000000E+00  1.30000000E+00  1.70000000E+00  1.70000000E+00
  1.30000000E+00  1.70000000E+00  1.70000000E+00  1.30000000E+00  1.70000000E+00
  1.70000000E+00  1.30000000E+00  1.70000000E+00  1.30000000E+00  1.30000000E+00
  1.30000000E+00  1.70000000E+00  1.70000000E+00  1.70000000E+00  1.70000000E+00
  1.70000000E+00  1.30000000E+00  1.70000000E+00  1.70000000E+00  1.70000000E+00
  1.70000000E+00  1.70000000E+00  1.30000000E+00  1.30000000E+00  1.70000000E+00
  1.30000000E+00  1.70000000E+00  1.70000000E+00  1.30000000E+00  1.30000000E+00
  1.30000000E+00  1.70000000E+00  1.70000000E+00  1.30000000E+00  1.70000000E+00
  1.70000000E+00  1.30000000E+00  1.70000000E+00  1.70000000E+00  1.30000000E+00
  1.70000000E+00  1.70000000E+00  1.30000000E+00  1.70000000E+00  1.30000000E+00
  1.30000000E+00  1.30000000E+00  1.70000000E+00  1.70000000E+00  1.70000000E+00
  1.70000000E+00  1.70000000E+00  1.30000000E+00  1.70000000E+00  1.70000000E+00
  1.70000000E+00  1.70000000E+00  1.70000000E+00  1.30000000E+00  1.30000000E+00
  1.70000000E+00  1.30000000E+00  1.70000000E+00  1.70000000E+00  1.30000000E+00
  1.30000000E+00  1.30000000E+00  1.70000000E+00  1.70000000E+00  1.30000000E+00
  1.70000000E+00  1.70000000E+00  1.30000000E+00  1.70000000E+00  1.70000000E+00
  1.30000000E+00  1.70000000E+00  1.70000000E+00  1.30000000E+00  1.70000000E+00
  1.30000000E+00  1.30000000E+00  1.30000000E+00  1.70000000E+00  1.70000000E+00
  1.70000000E+00  1.70000000E+00  1.70000000E+00  1.30000000E+00  1.70000000E+00
  1.70000000E+00  1.70000000E+00  1.70000000E+00  1.70000000E+00  1.30000000E+00
  1.30000000E+00  1.70000000E+00  1.30000000E+00  1.70000000E+00  1.70000000E+00
  1.30000000E+00  1.30000000E+00  1.30000000E+00  1.70000000E+00  1.70000000E+00
  1.30000000E+00  1.70000000E+00  1.70000000E+00  1.30000000E+00  1.70000000E+00
  1.70000000E+00  1.30000000E+00  1.70000000E+00  1.70000000E+00  1.30000000E+00
  1.70000000E+00  1.30000000E+00  1.30000000E+00  1.30000000E+00  1.70000000E+00
  1.70000000E+00  1.70000000E+00  1.70000000E+00  1.70000000E+00  1.30000000E+00
  1.70000000E+00  1.70000000E+00  1.70000000E+00  1.70000000E+00  1.70000000E+00
  1.30000000E+00  1.30000000E+00  1.70000000E+00  1.30000000E+00  1.70000000E+00
  1.70000000E+00  1.30000000E+00  1.30000000E+00  1.30000000E+00  1.70000000E+00
  1.70000000E+00  1.30000000E+00  1.70000000E+00  1.70000000E+00  1.30000000E+00
  1.70000000E+00  1.70000000E+00  1.30000000E+00  1.70000000E+00  1.70000000E+00
  1.30000000E+00  1.70000000E+00  1.30000000E+00  1.30000000E+00  1.30000000E+00
  1.70000000E+00  1.70000000E+00  1.70000000E+00  1.70000000E+00  1.70000000E+00
  1.30000000E+00  1.70000000E+00  1.70000000E+00  1.70000000E+00  1.70000000E+00
  1.70000000E+00  1.30000000E+00  1.30000000E+00  1.70000000E+00  1.30000000E+00
  1.70000000E+00  1.70000000E+00  1.30000000E+00  1.30000000E+00  1.30000000E+00
  1.70000000E+00  1.70000000E+00  1.30000000E+00  1.70000000E+00  1.70000000E+00
  1.30000000E+00  1.70000000E+00  1.70000000E+00  1.30000000E+00  1.70000000E+00
  1.70000000E+00  1.30000000E+00  1.70000000E+00  1.30000000E+00  1.30000000E+00
  1.30000000E+00  1.70000000E+00  1.70000000E+00  1.70000000E+00  1.70000000E+00
  1.70000000E+00  1.30000000E+00  1.70000000E+00  1.70000000E+00  1.70000000E+00
  1.70000000E+00  1.70000000E+00  1.30000000E+00  1.30000000E+00  1.70000000E+00
  1.30000000E+00  1.70000000E+00  1.70000000E+00  1.30000000E+00  1.30000000E+00
  1.30000000E+00  1.70000000E+00  1.70000000E+00  1.30000000E+00  1.70000000E+00
  1.70000000E+00  1.30000000E+00  1.70000000E+00  1.70000000E+00  1.30000000E+00
  1.70000000E+00  1.70000000E+00  1.30000000E+00  1.70000000E+00  1.30000000E+00
  1.30000000E+00  1.30000000E+00  1.70000000E+00  1.70000000E+00  1.70000000E+00
  1.70000000E+00  1.70000000E+00  1.30000000E+00  1.70000000E+00  1.70000000E+00
  1.70000000E+00  1.70000000E+00  1.70000000E+00  1.30000000E+00  1.30000000E+00
  1.70000000E+00  1.30000000E+00  1.70000000E+00  1.70000000E+00  1.30000000E+00
  1.30000000E+00  1.30000000E+00  1.70000000E+00  1.70000000E+00  1.30000000E+00
  1.70000000E+00  1.70000000E+00  1.30000000E+00  1.70000000E+00  1.70000000E+00
  1.30000000E+00  1.70000000E+00  1.70000000E+00  1.30000000E+00  1.70000000E+00
  1.30000000E+00  1.30000000E+00  1.30000000E+00  1.70000000E+00  1.70000000E+00
  1.70000000E+00  1.70000000E+00  1.70000000E+00  1.30000000E+00  1.70000000E+00
  1.70000000E+00  1.70000000E+00  1.70000000E+00  1.70000000E+00  1.30000000E+00
  1.30000000E+00  1.70000000E+00  1.30000000E+00  1.70000000E+00  1.70000000E+00
  1.30000000E+00  1.30000000E+00  1.30000000E+00  1.70000000E+00  1.70000000E+00
  1.30000000E+00  1.70000000E+00  1.70000000E+00  1.30000000E+00  1.70000000E+00
  1.70000000E+00  1.30000000E+00  1.70000000E+00  1.70000000E+00  1.30000000E+00
  1.70000000E+00  1.30000000E+00  1.30000000E+00  1.30000000E+00  1.70000000E+00
  1.70000000E+00  1.70000000E+00  1.70000000E+00  1.70000000E+00  1.30000000E+00
  1.70000000E+00  1.70000000E+00  1.70000000E+00  1.70000000E+00  1.70000000E+00
  1.30000000E+00  1.30000000E+00  1.70000000E+00  1.30000000E+00  1.70000000E+00
  1.70000000E+00  1.30000000E+00  1.30000000E+00  1.30000000E+00  1.70000000E+00
  1.70000000E+00  1.30000000E+00  1.70000000E+00  1.70000000E+00  1.30000000E+00
  1.70000000E+00  1.70000000E+00  1.30000000E+00  1.70000000E+00  1.70000000E+00
  1.30000000E+00  1.70000000E+00  1.30000000E+00  1.30000000E+00  1.30000000E+00
  1.70000000E+00  1.70000000E+00  1.70000000E+00  1.70000000E+00  1.70000000E+00
  1.30000000E+00  1.70000000E+00  1.70000000E+00  1.70000000E+00  1.70000000E+00
  1.70000000E+00  1.30000000E+00  1.30000000E+00  1.70000000E+00  1.30000000E+00
  1.70000000E+00  1.70000000E+00  1.30000000E+00  1.30000000E+00  1.30000000E+00
  1.70000000E+00  1.70000000E+00  1.30000000E+00  1.70000000E+00  1.70000000E+00
  1.30000000E+00  1.70000000E+00  1.70000000E+00  1.30000000E+00  1.70000000E+00
  1.70000000E+00  1.30000000E+00  1.70000000E+00  1.30000000E+00  1.30000000E+00
  1.30000000E+00  1.70000000E+00  1.70000000E+00  1.70000000E+00  1.70000000E+00
  1.70000000E+00  1.30000000E+00  1.70000000E+00  1.70000000E+00  1.70000000E+00
  1.70000000E+00  1.70000000E+00  1.30000000E+00  1.30000000E+00  1.70000000E+00
  1.30000000E+00  1.70000000E+00  1.70000000E+00  1.30000000E+00  1.30000000E+00
  1.30000000E+00  1.70000000E+00  1.70000000E+00  1.30000000E+00  1.70000000E+00
  1.70000000E+00  1.30000000E+00  1.70000000E+00  1.70000000E+00  1.30000000E+00
  1.70000000E+00  1.70000000E+00  1.30000000E+00  1.70000000E+00  1.30000000E+00
  1.30000000E+00  1.30000000E+00  1.70000000E+00  1.70000000E+00  1.70000000E+00
  1.70000000E+00  1.70000000E+00  1.30000000E+00  1.70000000E+00  1.70000000E+00
  1.70000000E+00  1.70000000E+00  1.70000000E+00  1.30000000E+00  1.30000000E+00
  1.70000000E+00  1.30000000E+00  1.70000000E+00  1.70000000E+00  1.30000000E+00
  1.30000000E+00  1.30000000E+00  1.70000000E+00  1.70000000E+00  1.30000000E+00
  1.70000000E+00  1.70000000E+00  1.30000000E+00  1.70000000E+00  1.70000000E+00
  1.30000000E+00  1.70000000E+00  1.70000000E+00  1.30000000E+00  1.70000000E+00
  1.30000000E+00  1.30000000E+00  1.30000000E+00  1.70000000E+00  1.70000000E+00
  1.70000000E+00  1.70000000E+00  1.70000000E+00  1.30000000E+00  1.70000000E+00
  1.70000000E+00  1.70000000E+00  1.70000000E+00  1.70000000E+00  1.30000000E+00
  1.30000000E+00  1.70000000E+00  1.30000000E+00  1.70000000E+00  1.70000000E+00
  1.30000000E+00  1.30000000E+00  1.30000000E+00  1.70000000E+00  1.70000000E+00
  1.30000000E+00  1.70000000E+00  1.70000000E+00  1.30000000E+00  1.70000000E+00
  1.70000000E+00  1.30000000E+00  1.70000000E+00  1.70000000E+00  1.30000000E+00
  1.70000000E+00  1.30000000E+00  1.30000000E+00  1.30000000E+00  1.70000000E+00
  1.70000000E+00  1.70000000E+00  1.70000000E+00  1.70000000E+00  1.30000000E+00
  1.70000000E+00  1.70000000E+00  1.70000000E+00  1.70000000E+00  1.70000000E+00
  1.30000000E+00  1.30000000E+00  1.70000000E+00  1.30000000E+00  1.70000000E+00
  1.70000000E+00  1.30000000E+00  1.30000000E+00  1.30000000E+00  1.70000000E+00
  1.70000000E+00  1.30000000E+00  1.70000000E+00  1.70000000E+00  1.30000000E+00
  1.70000000E+00  1.70000000E+00  1.30000000E+00  1.70000000E+00  1.70000000E+00
  1.30000000E+00  1.70000000E+00  1.30000000E+00  1.30000000E+00  1.30000000E+00
  1.70000000E+00  1.70000000E+00  1.70000000E+00  1.70000000E+00  1.70000000E+00
  1.30000000E+00  1.70000000E+00  1.70000000E+00  1.70000000E+00  1.70000000E+00
  1.70000000E+00  1.30000000E+00  1.30000000E+00  1.70000000E+00  1.30000000E+00
  1.70000000E+00  1.70000000E+00  1.30000000E+00  1.30000000E+00  1.30000000E+00
  1.70000000E+00  1.70000000E+00  1.30000000E+00  1.70000000E+00  1.70000000E+00
  1.30000000E+00  1.70000000E+00  1.70000000E+00  1.30000000E+00  1.70000000E+00
  1.70000000E+00  1.30000000E+00  1.70000000E+00  1.30000000E+00  1.30000000E+00
  1.30000000E+00  1.70000000E+00  1.70000000E+00  1.70000000E+00  1.70000000E+00
  1.70000000E+00  1.30000000E+00  1.70000000E+00  1.70000000E+00  1.70000000E+00
  1.70000000E+00  1.70000000E+00  1.30000000E+00  1.30000000E+00  1.70000000E+00
  1.30000000E+00  1.70000000E+00  1.70000000E+00  1.30000000E+00  1.30000000E+00
  1.30000000E+00  1.70000000E+00  1.70000000E+00  1.30000000E+00  1.70000000E+00
  1.70000000E+00  1.30000000E+00  1.70000000E+00  1.70000000E+00  1.30000000E+00
  1.70000000E+00  1.70000000E+00  1.30000000E+00  1.70000000E+00  1.30000000E+00
  1.30000000E+00  1.30000000E+00  1.70000000E+00  1.70000000E+00  1.70000000E+00
  1.70000000E+00  1.70000000E+00  1.30000000E+00  1.70000000E+00  1.70000000E+00
  1.70000000E+00  1.70000000E+00  1.70000000E+00  1.30000000E+00  1.30000000E+00
  1.70000000E+00  1.30000000E+00  1.70000000E+00  1.70000000E+00  1.30000000E+00
  1.30000000E+00  1.30000000E+00  1.70000000E+00  1.70000000E+00  1.30000000E+00
  1.70000000E+00  1.70000000E+00  1.30000000E+00  1.70000000E+00  1.70000000E+00
  1.30000000E+00  1.70000000E+00  1.70000000E+00  1.30000000E+00  1.70000000E+00
  1.30000000E+00  1.30000000E+00  1.30000000E+00  1.70000000E+00  1.70000000E+00
  1.70000000E+00  1.70000000E+00  1.70000000E+00  1.30000000E+00  1.70000000E+00
  1.70000000E+00  1.70000000E+00  1.70000000E+00  1.70000000E+00  1.30000000E+00
  1.30000000E+00  1.70000000E+00  1.30000000E+00  1.70000000E+00  1.70000000E+00
  1.30000000E+00  1.30000000E+00  1.30000000E+00  1.70000000E+00  1.70000000E+00
  1.30000000E+00  1.70000000E+00  1.70000000E+00  1.30000000E+00  1.70000000E+00
  1.70000000E+00  1.30000000E+00  1.70000000E+00  1.70000000E+00  1.30000000E+00
  1.70000000E+00  1.30000000E+00  1.30000000E+00  1.30000000E+00  1.70000000E+00
  1.70000000E+00  1.70000000E+00  1.70000000E+00  1.70000000E+00  1.30000000E+00
  1.70000000E+00  1.70000000E+00  1.70000000E+00  1.70000000E+00  1.70000000E+00
  1.30000000E+00  1.30000000E+00  1.70000000E+00  1.30000000E+00  1.70000000E+00
  1.70000000E+00  1.30000000E+00  1.30000000E+00  1.30000000E+00  1.70000000E+00
  1.70000000E+00  1.30000000E+00  1.70000000E+00  1.70000000E+00  1.30000000E+00
  1.70000000E+00  1.70000000E+00  1.30000000E+00  1.70000000E+00  1.70000000E+00
  1.30000000E+00  1.70000000E+00  1.30000000E+00  1.30000000E+00  1.30000000E+00
  1.70000000E+00  1.70000000E+00  1.70000000E+00  1.70000000E+00  1.70000000E+00
  1.30000000E+00  1.70000000E+00  1.70000000E+00  1.70000000E+00  1.70000000E+00
  1.70000000E+00  1.30000000E+00  1.30000000E+00  1.70000000E+00  1.30000000E+00
  1.70000000E+00  1.70000000E+00  1.30000000E+00  1.30000000E+00  1.30000000E+00
  1.70000000E+00  1.70000000E+00  1.30000000E+00  1.70000000E+00  1.70000000E+00
  1.30000000E+00  1.70000000E+00  1.70000000E+00  1.30000000E+00  1.70000000E+00
  1.70000000E+00  1.30000000E+00  1.70000000E+00  1.30000000E+00  1.30000000E+00
  1.30000000E+00  1.70000000E+00  1.70000000E+00  1.70000000E+00  1.70000000E+00
  1.70000000E+00  1.30000000E+00  1.70000000E+00  1.70000000E+00  1.70000000E+00
  1.70000000E+00  1.70000000E+00  1.30000000E+00  1.30000000E+00  1.70000000E+00
  1.30000000E+00  1.70000000E+00  1.70000000E+00  1.30000000E+00  1.30000000E+00
  1.30000000E+00  1.70000000E+00  1.70000000E+00  1.30000000E+00  1.70000000E+00
  1.70000000E+00  1.30000000E+00  1.70000000E+00  1.70000000E+00  1.30000000E+00
  1.70000000E+00  1.70000000E+00  1.30000000E+00  1.70000000E+00  1.30000000E+00
  1.30000000E+00  1.30000000E+00  1.70000000E+00  1.70000000E+00  1.70000000E+00
  1.70000000E+00  1.70000000E+00  1.30000000E+00  1.70000000E+00  1.70000000E+00
  1.70000000E+00  1.70000000E+00  1.70000000E+00  1.30000000E+00  1.30000000E+00
  1.70000000E+00  1.30000000E+00  1.70000000E+00  1.70000000E+00  1.30000000E+00
  1.30000000E+00  1.30000000E+00  1.70000000E+00  1.70000000E+00  1.30000000E+00
  1.70000000E+00  1.70000000E+00  1.30000000E+00  1.70000000E+00  1.70000000E+00
  1.30000000E+00  1.70000000E+00  1.70000000E+00  1.30000000E+00  1.70000000E+00
  1.30000000E+00  1.30000000E+00  1.30000000E+00  1.70000000E+00  1.70000000E+00
  1.70000000E+00  1.70000000E+00  1.70000000E+00  1.30000000E+00  1.70000000E+00
  1.70000000E+00  1.70000000E+00  1.70000000E+00  1.70000000E+00  1.30000000E+00
  1.30000000E+00  1.70000000E+00  1.30000000E+00  1.70000000E+00  1.70000000E+00
  1.30000000E+00  1.30000000E+00  1.30000000E+00  1.70000000E+00  1.70000000E+00
  1.30000000E+00  1.70000000E+00  1.70000000E+00  1.30000000E+00  1.70000000E+00
  1.70000000E+00  1.30000000E+00  1.70000000E+00  1.70000000E+00  1.30000000E+00
  1.70000000E+00  1.30000000E+00  1.30000000E+00  1.30000000E+00  1.70000000E+00
  1.70000000E+00  1.70000000E+00  1.70000000E+00  1.70000000E+00  1.30000000E+00
  1.70000000E+00  1.70000000E+00  1.70000000E+00  1.70000000E+00  1.70000000E+00
  1.30000000E+00  1.30000000E+00  1.70000000E+00  1.30000000E+00  1.70000000E+00
  1.70000000E+00  1.30000000E+00  1.30000000E+00  1.30000000E+00  1.70000000E+00
  1.70000000E+00  1.30000000E+00  1.70000000E+00  1.70000000E+00  1.30000000E+00
  1.70000000E+00  1.70000000E+00  1.30000000E+00  1.70000000E+00  1.70000000E+00
  1.30000000E+00  1.70000000E+00  1.30000000E+00  1.30000000E+00  1.30000000E+00
  1.70000000E+00  1.70000000E+00  1.70000000E+00  1.70000000E+00  1.70000000E+00
  1.30000000E+00  1.70000000E+00  1.70000000E+00  1.70000000E+00  1.70000000E+00
  1.70000000E+00  1.30000000E+00  1.30000000E+00  1.70000000E+00  1.30000000E+00
  1.70000000E+00  1.70000000E+00  1.30000000E+00  1.30000000E+00  1.30000000E+00
  1.70000000E+00  1.70000000E+00  1.30000000E+00  1.70000000E+00  1.70000000E+00
  1.30000000E+00  1.70000000E+00  1.70000000E+00  1.30000000E+00  1.70000000E+00
  1.70000000E+00  1.30000000E+00  1.70000000E+00  1.30000000E+00  1.30000000E+00
  1.30000000E+00  1.70000000E+00  1.70000000E+00  1.70000000E+00  1.70000000E+00
  1.70000000E+00  1.30000000E+00  1.70000000E+00  1.70000000E+00  1.70000000E+00
  1.70000000E+00  1.70000000E+00  1.30000000E+00  1.30000000E+00  1.70000000E+00
  1.30000000E+00  1.70000000E+00  1.70000000E+00  1.30000000E+00  1.30000000E+00
  1.30000000E+00  1.70000000E+00  1.70000000E+00  1.30000000E+00  1.70000000E+00
  1.70000000E+00  1.30000000E+00  1.70000000E+00  1.70000000E+00  1.30000000E+00
  1.70000000E+00  1.70000000E+00  1.30000000E+00  1.70000000E+00  1.30000000E+00
  1.30000000E+00  1.30000000E+00  1.70000000E+00  1.70000000E+00  1.70000000E+00
  1.70000000E+00  1.70000000E+00  1.30000000E+00  1.70000000E+00  1.70000000E+00
  1.70000000E+00  1.70000000E+00  1.70000000E+00  1.30000000E+00  1.30000000E+00
  1.70000000E+00  1.30000000E+00  1.70000000E+00  1.70000000E+00  1.30000000E+00
  1.30000000E+00  1.30000000E+00  1.70000000E+00  1.70000000E+00  1.30000000E+00
  1.70000000E+00  1.70000000E+00  1.30000000E+00  1.70000000E+00  1.70000000E+00
  1.30000000E+00  1.70000000E+00  1.70000000E+00  1.30000000E+00  1.70000000E+00
  1.30000000E+00  1.30000000E+00  1.30000000E+00  1.70000000E+00  1.70000000E+00
  1.70000000E+00  1.70000000E+00  1.70000000E+00  1.30000000E+00  1.70000000E+00
  1.70000000E+00  1.70000000E+00  1.70000000E+00  1.70000000E+00  1.30000000E+00
  1.30000000E+00  1.70000000E+00  1.30000000E+00  1.70000000E+00  1.70000000E+00
  1.30000000E+00  1.30000000E+00  1.30000000E+00  1.70000000E+00  1.70000000E+00
  1.30000000E+00  1.70000000E+00  1.70000000E+00  1.30000000E+00  1.70000000E+00
  1.70000000E+00  1.30000000E+00  1.70000000E+00  1.70000000E+00  1.30000000E+00
  1.70000000E+00  1.30000000E+00  1.30000000E+00  1.30000000E+00  1.70000000E+00
  1.70000000E+00  1.70000000E+00  1.70000000E+00  1.70000000E+00  1.30000000E+00
  1.70000000E+00  1.70000000E+00  1.70000000E+00  1.70000000E+00  1.70000000E+00
  1.30000000E+00  1.30000000E+00  1.70000000E+00  1.30000000E+00  1.70000000E+00
  1.70000000E+00  1.30000000E+00  1.30000000E+00  1.30000000E+00  1.70000000E+00
  1.70000000E+00  1.30000000E+00  1.70000000E+00  1.70000000E+00  1.30000000E+00
  1.70000000E+00  1.70000000E+00  1.30000000E+00  1.70000000E+00  1.70000000E+00
  1.30000000E+00  1.70000000E+00  1.30000000E+00  1.30000000E+00  1.30000000E+00
  1.70000000E+00  1.70000000E+00  1.70000000E+00  1.70000000E+00  1.70000000E+00
  1.30000000E+00  1.70000000E+00  1.70000000E+00  1.70000000E+00  1.70000000E+00
  1.70000000E+00  1.30000000E+00  1.30000000E+00  1.70000000E+00  1.30000000E+00
  1.70000000E+00  1.70000000E+00  1.30000000E+00  1.30000000E+00  1.30000000E+00
  1.70000000E+00  1.70000000E+00  1.30000000E+00  1.70000000E+00  1.70000000E+00
  1.30000000E+00  1.70000000E+00  1.70000000E+00  1.30000000E+00  1.70000000E+00
  1.70000000E+00  1.30000000E+00  1.70000000E+00  1.30000000E+00  1.30000000E+00
  1.30000000E+00  1.70000000E+00  1.70000000E+00  1.70000000E+00  1.70000000E+00
  1.70000000E+00  1.30000000E+00  1.70000000E+00  1.70000000E+00  1.70000000E+00
  1.70000000E+00  1.70000000E+00  1.30000000E+00  1.30000000E+00  1.70000000E+00
  1.30000000E+00  1.70000000E+00  1.70000000E+00  1.30000000E+00  1.30000000E+00
  1.30000000E+00  1.70000000E+00  1.70000000E+00  1.30000000E+00  1.70000000E+00
  1.70000000E+00  1.30000000E+00  1.70000000E+00  1.70000000E+00  1.30000000E+00
  1.70000000E+00  1.70000000E+00  1.30000000E+00  1.70000000E+00  1.30000000E+00
  1.30000000E+00  1.30000000E+00  1.70000000E+00  1.70000000E+00  1.70000000E+00
  1.70000000E+00  1.70000000E+00  1.30000000E+00  1.70000000E+00  1.70000000E+00
  1.70000000E+00  1.70000000E+00  1.70000000E+00  1.30000000E+00  1.30000000E+00
  1.70000000E+00  1.30000000E+00  1.70000000E+00  1.70000000E+00  1.30000000E+00
  1.30000000E+00  1.30000000E+00  1.70000000E+00  1.70000000E+00  1.30000000E+00
  1.70000000E+00  1.70000000E+00  1.30000000E+00  1.70000000E+00  1.70000000E+00
  1.30000000E+00  1.70000000E+00  1.70000000E+00  1.30000000E+00  1.70000000E+00
  1.30000000E+00  1.30000000E+00  1.30000000E+00  1.70000000E+00  1.70000000E+00
  1.70000000E+00  1.70000000E+00  1.70000000E+00  1.30000000E+00  1.70000000E+00
  1.70000000E+00  1.70000000E+00  1.70000000E+00  1.70000000E+00  1.30000000E+00
  1.30000000E+00  1.70000000E+00  1.30000000E+00  1.70000000E+00  1.70000000E+00
  1.30000000E+00  1.30000000E+00  1.30000000E+00  1.70000000E+00  1.70000000E+00
  1.30000000E+00  1.70000000E+00  1.70000000E+00  1.30000000E+00  1.70000000E+00
  1.70000000E+00  1.30000000E+00  1.70000000E+00  1.70000000E+00  1.30000000E+00
  1.70000000E+00  1.30000000E+00  1.30000000E+00  1.30000000E+00  1.70000000E+00
  1.70000000E+00  1.70000000E+00  1.70000000E+00  1.70000000E+00  1.30000000E+00
  1.70000000E+00  1.70000000E+00  1.70000000E+00  1.70000000E+00  1.70000000E+00
  1.30000000E+00  1.30000000E+00  1.70000000E+00  1.30000000E+00  1.70000000E+00
  1.70000000E+00  1.30000000E+00  1.30000000E+00  1.30000000E+00  1.70000000E+00
  1.70000000E+00  1.30000000E+00  1.70000000E+00  1.70000000E+00  1.30000000E+00
  1.70000000E+00  1.70000000E+00  1.30000000E+00  1.70000000E+00  1.70000000E+00
  1.30000000E+00  1.70000000E+00  1.30000000E+00  1.30000000E+00  1.30000000E+00
  1.70000000E+00  1.70000000E+00  1.70000000E+00  1.70000000E+00  1.70000000E+00
  1.30000000E+00  1.70000000E+00  1.70000000E+00  1.70000000E+00  1.70000000E+00
  1.70000000E+00  1.30000000E+00  1.30000000E+00  1.70000000E+00  1.30000000E+00
  1.70000000E+00  1.70000000E+00  1.30000000E+00  1.30000000E+00  1.30000000E+00
  1.70000000E+00  1.70000000E+00  1.30000000E+00  1.70000000E+00  1.70000000E+00
  1.30000000E+00  1.70000000E+00  1.70000000E+00  1.30000000E+00  1.70000000E+00
  1.70000000E+00  1.30000000E+00  1.70000000E+00  1.30000000E+00  1.30000000E+00
  1.30000000E+00  1.70000000E+00  1.70000000E+00  1.70000000E+00  1.70000000E+00
  1.70000000E+00  1.30000000E+00  1.70000000E+00  1.70000000E+00  1.70000000E+00
  1.70000000E+00  1.70000000E+00  1.30000000E+00  1.30000000E+00  1.70000000E+00
  1.30000000E+00  1.70000000E+00  1.70000000E+00  1.30000000E+00  1.30000000E+00
  1.30000000E+00  1.70000000E+00  1.70000000E+00  1.30000000E+00  1.70000000E+00
  1.70000000E+00  1.30000000E+00  1.70000000E+00  1.70000000E+00  1.30000000E+00
  1.70000000E+00  1.70000000E+00  1.30000000E+00  1.70000000E+00  1.30000000E+00
  1.30000000E+00  1.30000000E+00  1.70000000E+00  1.70000000E+00  1.70000000E+00
  1.70000000E+00  1.70000000E+00  1.30000000E+00  1.70000000E+00  1.70000000E+00
  1.70000000E+00  1.70000000E+00  1.70000000E+00  1.30000000E+00  1.30000000E+00
  1.70000000E+00  1.30000000E+00  1.70000000E+00  1.70000000E+00  1.30000000E+00
  1.30000000E+00  1.30000000E+00  1.70000000E+00  1.70000000E+00  1.30000000E+00
  1.70000000E+00  1.70000000E+00  1.30000000E+00  1.70000000E+00  1.70000000E+00
  1.30000000E+00  1.70000000E+00  1.70000000E+00  1.30000000E+00  1.70000000E+00
  1.30000000E+00  1.30000000E+00  1.30000000E+00  1.70000000E+00  1.70000000E+00
  1.70000000E+00  1.70000000E+00  1.70000000E+00  1.30000000E+00  1.70000000E+00
  1.70000000E+00  1.70000000E+00  1.70000000E+00  1.70000000E+00  1.30000000E+00
  1.30000000E+00  1.70000000E+00  1.30000000E+00  1.70000000E+00  1.70000000E+00
  1.30000000E+00  1.30000000E+00  1.30000000E+00  1.70000000E+00  1.70000000E+00
  1.30000000E+00  1.70000000E+00  1.70000000E+00  1.30000000E+00  1.70000000E+00
  1.70000000E+00  1.30000000E+00  1.70000000E+00  1.70000000E+00  1.30000000E+00
  1.70000000E+00  1.30000000E+00  1.30000000E+00  1.30000000E+00  1.70000000E+00
  1.70000000E+00  1.70000000E+00  1.70000000E+00  1.70000000E+00  1.30000000E+00
  1.70000000E+00  1.70000000E+00  1.70000000E+00  1.70000000E+00  1.70000000E+00
  1.30000000E+00  1.30000000E+00  1.70000000E+00  1.30000000E+00  1.70000000E+00
  1.70000000E+00  1.30000000E+00  1.30000000E+00  1.30000000E+00  1.70000000E+00
  1.70000000E+00  1.30000000E+00  1.70000000E+00  1.70000000E+00  1.30000000E+00
  1.70000000E+00  1.70000000E+00  1.30000000E+00  1.70000000E+00  1.70000000E+00
  1.30000000E+00  1.70000000E+00  1.30000000E+00  1.30000000E+00  1.30000000E+00
  1.70000000E+00  1.70000000E+00  1.70000000E+00  1.70000000E+00  1.70000000E+00
  1.30000000E+00  1.70000000E+00  1.70000000E+00  1.70000000E+00  1.70000000E+00
  1.70000000E+00  1.30000000E+00  1.30000000E+00  1.70000000E+00  1.30000000E+00
  1.70000000E+00  1.70000000E+00  1.30000000E+00  1.30000000E+00  1.30000000E+00
  1.70000000E+00  1.70000000E+00  1.30000000E+00  1.70000000E+00  1.70000000E+00
  1.30000000E+00  1.70000000E+00  1.70000000E+00  1.30000000E+00  1.70000000E+00
  1.70000000E+00  1.30000000E+00  1.70000000E+00  1.30000000E+00  1.30000000E+00
  1.30000000E+00  1.70000000E+00  1.70000000E+00  1.70000000E+00  1.70000000E+00
  1.70000000E+00  1.30000000E+00  1.70000000E+00  1.70000000E+00  1.70000000E+00
  1.70000000E+00  1.70000000E+00  1.30000000E+00  1.30000000E+00  1.70000000E+00
  1.30000000E+00  1.70000000E+00  1.70000000E+00  1.30000000E+00  1.30000000E+00
  1.30000000E+00  1.70000000E+00  1.70000000E+00  1.30000000E+00  1.70000000E+00
  1.70000000E+00  1.30000000E+00  1.70000000E+00  1.70000000E+00  1.30000000E+00
  1.70000000E+00  1.70000000E+00  1.30000000E+00  1.70000000E+00  1.30000000E+00
  1.30000000E+00  1.30000000E+00  1.70000000E+00  1.70000000E+00  1.70000000E+00
  1.70000000E+00  1.70000000E+00  1.30000000E+00  1.70000000E+00  1.70000000E+00
  1.70000000E+00  1.70000000E+00  1.70000000E+00  1.30000000E+00  1.30000000E+00
  1.70000000E+00  1.30000000E+00  1.70000000E+00  1.70000000E+00  1.30000000E+00
  1.30000000E+00  1.30000000E+00  1.70000000E+00  1.70000000E+00  1.30000000E+00
  1.70000000E+00  1.70000000E+00  1.30000000E+00  1.70000000E+00  1.70000000E+00
  1.30000000E+00  1.70000000E+00  1.70000000E+00  1.30000000E+00  1.70000000E+00
  1.30000000E+00  1.30000000E+00  1.30000000E+00  1.70000000E+00  1.70000000E+00
  1.70000000E+00  1.70000000E+00  1.70000000E+00  1.30000000E+00  1.70000000E+00
  1.70000000E+00  1.70000000E+00  1.70000000E+00  1.70000000E+00  1.30000000E+00
  1.30000000E+00  1.70000000E+00  1.30000000E+00  1.70000000E+00  1.70000000E+00
  1.30000000E+00  1.30000000E+00  1.30000000E+00  1.70000000E+00  1.70000000E+00
  1.30000000E+00  1.70000000E+00  1.70000000E+00  1.30000000E+00  1.70000000E+00
  1.70000000E+00  1.30000000E+00  1.70000000E+00  1.70000000E+00  1.30000000E+00
  1.70000000E+00  1.30000000E+00  1.30000000E+00  1.30000000E+00  1.70000000E+00
  1.70000000E+00  1.70000000E+00  1.70000000E+00  1.70000000E+00  1.30000000E+00
  1.70000000E+00  1.70000000E+00  1.70000000E+00  1.70000000E+00  1.70000000E+00
  1.30000000E+00  1.30000000E+00  1.70000000E+00  1.30000000E+00  1.70000000E+00
  1.70000000E+00  1.30000000E+00  1.30000000E+00  1.30000000E+00  1.70000000E+00
  1.70000000E+00  1.30000000E+00  1.70000000E+00  1.70000000E+00  1.30000000E+00
  1.70000000E+00  1.70000000E+00  1.30000000E+00  1.70000000E+00  1.70000000E+00
  1.30000000E+00  1.70000000E+00  1.30000000E+00  1.30000000E+00  1.30000000E+00
  1.70000000E+00  1.70000000E+00  1.70000000E+00  1.70000000E+00  1.70000000E+00
  1.30000000E+00  1.70000000E+00  1.70000000E+00  1.70000000E+00  1.70000000E+00
  1.70000000E+00  1.30000000E+00  1.30000000E+00  1.70000000E+00  1.30000000E+00
  1.70000000E+00  1.70000000E+00  1.30000000E+00  1.30000000E+00  1.30000000E+00
  1.70000000E+00  1.70000000E+00  1.30000000E+00  1.70000000E+00  1.70000000E+00
  1.30000000E+00  1.70000000E+00  1.70000000E+00  1.30000000E+00  1.70000000E+00
  1.70000000E+00  1.30000000E+00  1.70000000E+00  1.30000000E+00  1.30000000E+00
  1.30000000E+00  1.70000000E+00  1.70000000E+00  1.70000000E+00  1.70000000E+00
  1.70000000E+00  1.30000000E+00  1.70000000E+00  1.70000000E+00  1.70000000E+00
  1.70000000E+00  1.70000000E+00  1.30000000E+00  1.30000000E+00  1.70000000E+00
  1.30000000E+00  1.70000000E+00  1.70000000E+00  1.30000000E+00  1.30000000E+00
  1.30000000E+00  1.70000000E+00  1.70000000E+00  1.30000000E+00  1.70000000E+00
  1.70000000E+00  1.30000000E+00  1.70000000E+00  1.70000000E+00  1.30000000E+00
  1.70000000E+00  1.70000000E+00  1.30000000E+00  1.70000000E+00  1.30000000E+00
  1.30000000E+00  1.30000000E+00  1.70000000E+00  1.70000000E+00  1.70000000E+00
  1.70000000E+00  1.70000000E+00  1.30000000E+00  1.70000000E+00  1.70000000E+00
  1.70000000E+00  1.70000000E+00  1.70000000E+00  1.30000000E+00  1.30000000E+00
  1.70000000E+00  1.30000000E+00  1.70000000E+00  1.70000000E+00  1.30000000E+00
  1.30000000E+00  1.30000000E+00  1.70000000E+00  1.70000000E+00  1.30000000E+00
  1.70000000E+00  1.70000000E+00  1.30000000E+00  1.70000000E+00  1.70000000E+00
  1.30000000E+00  1.70000000E+00  1.70000000E+00  1.30000000E+00  1.70000000E+00
  1.30000000E+00  1.30000000E+00  1.30000000E+00  1.70000000E+00  1.70000000E+00
  1.70000000E+00  1.70000000E+00  1.70000000E+00  1.30000000E+00  1.70000000E+00
  1.70000000E+00  1.70000000E+00  1.70000000E+00  1.70000000E+00  1.30000000E+00
  1.30000000E+00  1.70000000E+00  1.30000000E+00  1.70000000E+00  1.70000000E+00
  1.30000000E+00  1.30000000E+00  1.30000000E+00  1.70000000E+00  1.70000000E+00
  1.30000000E+00  1.70000000E+00  1.70000000E+00  1.30000000E+00  1.70000000E+00
  1.70000000E+00  1.30000000E+00  1.70000000E+00  1.70000000E+00  1.30000000E+00
  1.70000000E+00  1.30000000E+00  1.30000000E+00  1.30000000E+00  1.70000000E+00
  1.70000000E+00  1.70000000E+00  1.70000000E+00  1.70000000E+00  1.30000000E+00
  1.70000000E+00  1.70000000E+00  1.70000000E+00  1.70000000E+00  1.70000000E+00
  1.30000000E+00  1.30000000E+00  1.70000000E+00  1.30000000E+00  1.70000000E+00
  1.70000000E+00  1.30000000E+00  1.30000000E+00  1.30000000E+00  1.70000000E+00
  1.70000000E+00  1.30000000E+00  1.70000000E+00  1.70000000E+00  1.30000000E+00
  1.70000000E+00  1.70000000E+00  1.30000000E+00  1.70000000E+00  1.70000000E+00
  1.30000000E+00  1.70000000E+00  1.30000000E+00  1.30000000E+00  1.30000000E+00
  1.70000000E+00  1.70000000E+00  1.70000000E+00  1.70000000E+00  1.70000000E+00
  1.30000000E+00  1.70000000E+00  1.70000000E+00  1.70000000E+00  1.70000000E+00
  1.70000000E+00  1.30000000E+00  1.30000000E+00  1.70000000E+00  1.30000000E+00
  1.70000000E+00  1.70000000E+00  1.30000000E+00  1.30000000E+00  1.30000000E+00
  1.70000000E+00  1.70000000E+00  1.30000000E+00  1.70000000E+00  1.70000000E+00
  1.30000000E+00  1.70000000E+00  1.70000000E+00  1.30000000E+00  1.70000000E+00
  1.70000000E+00  1.30000000E+00  1.70000000E+00  1.30000000E+00  1.30000000E+00
  1.30000000E+00  1.70000000E+00  1.70000000E+00  1.70000000E+00  1.70000000E+00
  1.70000000E+00  1.30000000E+00  1.70000000E+00  1.70000000E+00  1.70000000E+00
  1.70000000E+00  1.70000000E+00  1.30000000E+00  1.30000000E+00  1.70000000E+00
  1.30000000E+00  1.70000000E+00  1.70000000E+00  1.30000000E+00  1.30000000E+00
  1.30000000E+00  1.70000000E+00  1.70000000E+00  1.30000000E+00  1.70000000E+00
  1.70000000E+00  1.30000000E+00  1.70000000E+00  1.70000000E+00  1.30000000E+00
  1.70000000E+00  1.70000000E+00  1.30000000E+00  1.70000000E+00  1.30000000E+00
  1.30000000E+00  1.30000000E+00  1.70000000E+00  1.70000000E+00  1.70000000E+00
  1.70000000E+00  1.70000000E+00  1.30000000E+00  1.70000000E+00  1.70000000E+00
  1.70000000E+00  1.70000000E+00  1.70000000E+00  1.30000000E+00  1.30000000E+00
  1.70000000E+00  1.30000000E+00  1.70000000E+00  1.70000000E+00  1.30000000E+00
  1.30000000E+00  1.30000000E+00  1.70000000E+00  1.70000000E+00  1.30000000E+00
  1.70000000E+00  1.70000000E+00  1.30000000E+00  1.70000000E+00  1.70000000E+00
  1.30000000E+00  1.70000000E+00  1.70000000E+00  1.30000000E+00  1.70000000E+00
  1.30000000E+00  1.30000000E+00  1.30000000E+00  1.70000000E+00  1.70000000E+00
  1.70000000E+00  1.70000000E+00  1.70000000E+00  1.30000000E+00  1.70000000E+00
  1.70000000E+00  1.70000000E+00  1.70000000E+00  1.70000000E+00  1.30000000E+00
  1.30000000E+00  1.70000000E+00  1.30000000E+00  1.70000000E+00  1.70000000E+00
  1.30000000E+00  1.30000000E+00  1.30000000E+00  1.70000000E+00  1.70000000E+00
  1.30000000E+00  1.70000000E+00  1.70000000E+00  1.30000000E+00  1.70000000E+00
  1.70000000E+00  1.30000000E+00  1.70000000E+00  1.70000000E+00  1.30000000E+00
  1.70000000E+00  1.30000000E+00  1.30000000E+00  1.30000000E+00  1.70000000E+00
  1.70000000E+00  1.70000000E+00  1.70000000E+00  1.70000000E+00  1.30000000E+00
  1.70000000E+00  1.70000000E+00  1.70000000E+00  1.70000000E+00  1.70000000E+00
  1.30000000E+00  1.30000000E+00  1.70000000E+00  1.30000000E+00  1.70000000E+00
  1.70000000E+00  1.30000000E+00  1.30000000E+00  1.30000000E+00  1.70000000E+00
  1.70000000E+00  1.30000000E+00  1.70000000E+00  1.70000000E+00  1.30000000E+00
  1.70000000E+00  1.70000000E+00  1.30000000E+00  1.70000000E+00  1.70000000E+00
  1.30000000E+00  1.70000000E+00  1.30000000E+00  1.30000000E+00  1.30000000E+00
  1.70000000E+00  1.70000000E+00  1.70000000E+00  1.70000000E+00  1.70000000E+00
  1.30000000E+00  1.70000000E+00  1.70000000E+00  1.70000000E+00  1.70000000E+00
  1.70000000E+00  1.30000000E+00  1.30000000E+00  1.70000000E+00  1.30000000E+00
  1.70000000E+00  1.70000000E+00  1.30000000E+00  1.30000000E+00  1.30000000E+00
  1.70000000E+00  1.70000000E+00  1.30000000E+00  1.70000000E+00  1.70000000E+00
  1.30000000E+00  1.70000000E+00  1.70000000E+00  1.30000000E+00  1.70000000E+00
  1.70000000E+00  1.30000000E+00  1.70000000E+00  1.30000000E+00  1.30000000E+00
  1.30000000E+00  1.70000000E+00  1.70000000E+00  1.70000000E+00  1.70000000E+00
  1.70000000E+00  1.30000000E+00  1.70000000E+00  1.70000000E+00  1.70000000E+00
  1.70000000E+00  1.70000000E+00  1.30000000E+00  1.30000000E+00  1.70000000E+00
  1.30000000E+00  1.70000000E+00  1.70000000E+00  1.30000000E+00  1.30000000E+00
  1.30000000E+00  1.70000000E+00  1.70000000E+00  1.30000000E+00  1.70000000E+00
  1.70000000E+00  1.30000000E+00  1.70000000E+00  1.70000000E+00  1.30000000E+00
  1.70000000E+00  1.70000000E+00  1.30000000E+00  1.70000000E+00  1.30000000E+00
  1.30000000E+00  1.30000000E+00  1.70000000E+00  1.70000000E+00  1.70000000E+00
  1.70000000E+00  1.70000000E+00  1.30000000E+00  1.70000000E+00  1.70000000E+00
  1.70000000E+00  1.70000000E+00  1.70000000E+00  1.30000000E+00  1.30000000E+00
  1.70000000E+00  1.30000000E+00  1.70000000E+00  1.70000000E+00  1.30000000E+00
  1.30000000E+00  1.30000000E+00  1.70000000E+00  1.70000000E+00  1.30000000E+00
  1.70000000E+00  1.70000000E+00  1.30000000E+00  1.70000000E+00  1.70000000E+00
  1.30000000E+00  1.70000000E+00  1.70000000E+00  1.30000000E+00  1.70000000E+00
  1.30000000E+00  1.30000000E+00  1.30000000E+00  1.70000000E+00  1.70000000E+00
  1.70000000E+00  1.70000000E+00  1.70000000E+00  1.30000000E+00  1.70000000E+00
  1.70000000E+00  1.70000000E+00  1.70000000E+00  1.70000000E+00  1.30000000E+00
  1.30000000E+00  1.70000000E+00  1.30000000E+00  1.70000000E+00  1.70000000E+00
  1.30000000E+00  1.30000000E+00  1.30000000E+00  1.70000000E+00  1.70000000E+00
  1.30000000E+00  1.70000000E+00  1.70000000E+00  1.30000000E+00  1.70000000E+00
  1.70000000E+00  1.30000000E+00  1.70000000E+00  1.70000000E+00  1.30000000E+00
  1.70000000E+00  1.30000000E+00  1.30000000E+00  1.30000000E+00  1.70000000E+00
  1.70000000E+00  1.70000000E+00  1.70000000E+00  1.70000000E+00  1.30000000E+00
  1.70000000E+00  1.70000000E+00  1.70000000E+00  1.70000000E+00  1.70000000E+00
  1.30000000E+00  1.30000000E+00  1.70000000E+00  1.30000000E+00  1.70000000E+00
  1.70000000E+00  1.30000000E+00  1.30000000E+00  1.30000000E+00  1.70000000E+00
  1.70000000E+00  1.30000000E+00  1.70000000E+00  1.70000000E+00  1.30000000E+00
  1.70000000E+00  1.70000000E+00  1.30000000E+00  1.70000000E+00  1.70000000E+00
  1.30000000E+00  1.70000000E+00  1.30000000E+00  1.30000000E+00  1.30000000E+00
  1.70000000E+00  1.70000000E+00  1.70000000E+00  1.70000000E+00  1.70000000E+00
  1.30000000E+00  1.70000000E+00  1.70000000E+00  1.70000000E+00  1.70000000E+00
  1.70000000E+00  1.30000000E+00  1.30000000E+00  1.70000000E+00  1.30000000E+00
  1.70000000E+00  1.70000000E+00  1.30000000E+00  1.30000000E+00  1.30000000E+00
  1.70000000E+00  1.70000000E+00  1.30000000E+00  1.70000000E+00  1.70000000E+00
  1.30000000E+00  1.70000000E+00  1.70000000E+00  1.30000000E+00  1.70000000E+00
  1.70000000E+00  1.30000000E+00  1.70000000E+00  1.30000000E+00  1.30000000E+00
  1.30000000E+00  1.70000000E+00  1.70000000E+00  1.70000000E+00  1.70000000E+00
  1.70000000E+00  1.30000000E+00  1.70000000E+00  1.70000000E+00  1.70000000E+00
  1.70000000E+00  1.70000000E+00  1.30000000E+00  1.30000000E+00  1.70000000E+00
  1.30000000E+00  1.70000000E+00  1.70000000E+00  1.30000000E+00  1.30000000E+00
  1.30000000E+00  1.70000000E+00  1.70000000E+00  1.30000000E+00  1.70000000E+00
  1.70000000E+00  1.30000000E+00  1.70000000E+00  1.70000000E+00  1.30000000E+00
  1.70000000E+00  1.70000000E+00  1.30000000E+00  1.70000000E+00  1.30000000E+00
  1.30000000E+00  1.30000000E+00  1.70000000E+00  1.70000000E+00  1.70000000E+00
  1.70000000E+00  1.70000000E+00  1.30000000E+00  1.70000000E+00  1.70000000E+00
  1.70000000E+00  1.70000000E+00  1.70000000E+00  1.30000000E+00  1.30000000E+00
  1.70000000E+00  1.30000000E+00  1.70000000E+00  1.70000000E+00  1.30000000E+00
  1.30000000E+00  1.30000000E+00  1.70000000E+00  1.70000000E+00  1.30000000E+00
  1.70000000E+00  1.70000000E+00  1.30000000E+00  1.70000000E+00  1.70000000E+00
  1.30000000E+00  1.70000000E+00  1.70000000E+00  1.30000000E+00  1.70000000E+00
  1.30000000E+00  1.30000000E+00  1.30000000E+00  1.70000000E+00  1.70000000E+00
  1.70000000E+00  1.70000000E+00  1.70000000E+00  1.30000000E+00  1.70000000E+00
  1.70000000E+00  1.70000000E+00  1.70000000E+00  1.70000000E+00  1.30000000E+00
  1.30000000E+00  1.70000000E+00  1.30000000E+00  1.70000000E+00  1.70000000E+00
  1.30000000E+00  1.30000000E+00  1.30000000E+00  1.70000000E+00  1.70000000E+00
  1.30000000E+00  1.70000000E+00  1.70000000E+00  1.30000000E+00  1.70000000E+00
  1.70000000E+00  1.30000000E+00  1.70000000E+00  1.70000000E+00  1.30000000E+00
  1.70000000E+00  1.30000000E+00  1.30000000E+00  1.30000000E+00  1.70000000E+00
  1.70000000E+00  1.70000000E+00  1.70000000E+00  1.70000000E+00  1.30000000E+00
  1.70000000E+00  1.70000000E+00  1.70000000E+00  1.70000000E+00  1.70000000E+00
  1.30000000E+00  1.30000000E+00  1.70000000E+00  1.30000000E+00  1.70000000E+00
  1.70000000E+00  1.30000000E+00  1.30000000E+00  1.30000000E+00  1.70000000E+00
  1.70000000E+00  1.30000000E+00  1.70000000E+00  1.70000000E+00  1.30000000E+00
  1.70000000E+00  1.70000000E+00  1.30000000E+00  1.70000000E+00  1.70000000E+00
  1.30000000E+00  1.70000000E+00  1.30000000E+00  1.30000000E+00  1.30000000E+00
  1.70000000E+00  1.70000000E+00  1.70000000E+00  1.70000000E+00  1.70000000E+00
  1.30000000E+00  1.70000000E+00  1.70000000E+00  1.70000000E+00  1.70000000E+00
  1.70000000E+00  1.30000000E+00  1.30000000E+00  1.70000000E+00  1.30000000E+00
  1.70000000E+00  1.70000000E+00  1.30000000E+00  1.30000000E+00  1.30000000E+00
  1.70000000E+00  1.70000000E+00  1.30000000E+00  1.70000000E+00  1.70000000E+00
  1.30000000E+00  1.70000000E+00  1.70000000E+00  1.30000000E+00  1.70000000E+00
  1.70000000E+00  1.30000000E+00  1.70000000E+00  1.30000000E+00  1.30000000E+00
  1.30000000E+00  1.70000000E+00  1.70000000E+00  1.70000000E+00  1.70000000E+00
  1.70000000E+00  1.30000000E+00  1.70000000E+00  1.70000000E+00  1.70000000E+00
  1.70000000E+00  1.70000000E+00  1.30000000E+00  1.30000000E+00  1.70000000E+00
  1.30000000E+00  1.70000000E+00  1.70000000E+00  1.30000000E+00  1.30000000E+00
  1.30000000E+00  1.70000000E+00  1.70000000E+00  1.30000000E+00  1.70000000E+00
  1.70000000E+00  1.30000000E+00  1.70000000E+00  1.70000000E+00  1.30000000E+00
  1.70000000E+00  1.70000000E+00  1.30000000E+00  1.70000000E+00  1.30000000E+00
  1.30000000E+00  1.30000000E+00  1.70000000E+00  1.70000000E+00  1.70000000E+00
  1.70000000E+00  1.70000000E+00  1.30000000E+00  1.70000000E+00  1.70000000E+00
  1.70000000E+00  1.70000000E+00  1.70000000E+00  1.30000000E+00  1.30000000E+00
  1.70000000E+00  1.30000000E+00  1.70000000E+00  1.70000000E+00  1.30000000E+00
  1.30000000E+00  1.30000000E+00  1.70000000E+00  1.70000000E+00  1.30000000E+00
  1.70000000E+00  1.70000000E+00  1.30000000E+00  1.70000000E+00  1.70000000E+00
  1.30000000E+00  1.70000000E+00  1.70000000E+00  1.30000000E+00  1.70000000E+00
  1.30000000E+00  1.30000000E+00  1.30000000E+00  1.70000000E+00  1.70000000E+00
  1.70000000E+00  1.70000000E+00  1.70000000E+00  1.30000000E+00  1.70000000E+00
  1.70000000E+00  1.70000000E+00  1.70000000E+00  1.70000000E+00  1.30000000E+00
  1.30000000E+00  1.70000000E+00  1.30000000E+00  1.70000000E+00  1.70000000E+00
  1.30000000E+00  1.30000000E+00  1.30000000E+00  1.70000000E+00  1.70000000E+00
  1.30000000E+00  1.70000000E+00  1.70000000E+00  1.30000000E+00  1.70000000E+00
  1.70000000E+00  1.30000000E+00  1.70000000E+00  1.70000000E+00  1.30000000E+00
  1.70000000E+00  1.30000000E+00  1.30000000E+00  1.30000000E+00  1.70000000E+00
  1.70000000E+00  1.70000000E+00  1.70000000E+00  1.70000000E+00  1.30000000E+00
  1.70000000E+00  1.70000000E+00  1.70000000E+00  1.70000000E+00  1.70000000E+00
  1.30000000E+00  1.30000000E+00  1.70000000E+00  1.30000000E+00  1.70000000E+00
  1.70000000E+00  1.30000000E+00  1.30000000E+00  1.30000000E+00  1.70000000E+00
  1.70000000E+00  1.30000000E+00  1.70000000E+00  1.70000000E+00  1.30000000E+00
  1.70000000E+00  1.70000000E+00  1.30000000E+00  1.70000000E+00  1.70000000E+00
  1.30000000E+00  1.70000000E+00  1.30000000E+00  1.30000000E+00  1.30000000E+00
  1.70000000E+00  1.70000000E+00  1.70000000E+00  1.70000000E+00  1.70000000E+00
  1.30000000E+00  1.70000000E+00  1.70000000E+00  1.70000000E+00  1.70000000E+00
  1.70000000E+00  1.30000000E+00  1.30000000E+00  1.70000000E+00  1.30000000E+00
  1.70000000E+00  1.70000000E+00  1.30000000E+00  1.30000000E+00  1.30000000E+00
  1.70000000E+00  1.70000000E+00  1.30000000E+00  1.70000000E+00  1.70000000E+00
  1.30000000E+00  1.70000000E+00  1.70000000E+00  1.30000000E+00  1.70000000E+00
  1.70000000E+00  1.30000000E+00  1.70000000E+00  1.30000000E+00  1.30000000E+00
  1.30000000E+00  1.70000000E+00  1.70000000E+00  1.70000000E+00  1.70000000E+00
  1.70000000E+00  1.30000000E+00  1.70000000E+00  1.70000000E+00  1.70000000E+00
  1.70000000E+00  1.70000000E+00  1.30000000E+00  1.30000000E+00  1.70000000E+00
  1.30000000E+00  1.70000000E+00  1.70000000E+00  1.30000000E+00  1.30000000E+00
  1.30000000E+00  1.70000000E+00  1.70000000E+00  1.30000000E+00  1.70000000E+00
  1.70000000E+00  1.30000000E+00  1.70000000E+00  1.70000000E+00  1.30000000E+00
  1.70000000E+00  1.70000000E+00  1.30000000E+00  1.70000000E+00  1.30000000E+00
  1.30000000E+00  1.30000000E+00  1.70000000E+00  1.70000000E+00  1.70000000E+00
  1.70000000E+00  1.70000000E+00  1.30000000E+00  1.70000000E+00  1.70000000E+00
  1.70000000E+00  1.70000000E+00  1.70000000E+00  1.30000000E+00  1.30000000E+00
  1.70000000E+00  1.30000000E+00  1.70000000E+00  1.70000000E+00  1.30000000E+00
  1.30000000E+00  1.30000000E+00  1.70000000E+00  1.70000000E+00  1.30000000E+00
  1.70000000E+00  1.70000000E+00  1.30000000E+00  1.70000000E+00  1.70000000E+00
  1.30000000E+00  1.70000000E+00  1.70000000E+00  1.30000000E+00  1.70000000E+00
  1.30000000E+00  1.30000000E+00  1.30000000E+00  1.70000000E+00  1.70000000E+00
  1.70000000E+00  1.70000000E+00  1.70000000E+00  1.30000000E+00  1.70000000E+00
  1.70000000E+00  1.70000000E+00  1.70000000E+00  1.70000000E+00  1.30000000E+00
  1.30000000E+00  1.70000000E+00  1.30000000E+00  1.70000000E+00  1.70000000E+00
  1.30000000E+00  1.30000000E+00  1.30000000E+00  1.70000000E+00  1.70000000E+00
  1.30000000E+00  1.70000000E+00  1.70000000E+00  1.30000000E+00  1.70000000E+00
  1.70000000E+00  1.30000000E+00  1.70000000E+00  1.70000000E+00  1.30000000E+00
  1.70000000E+00  1.30000000E+00  1.30000000E+00  1.30000000E+00  1.70000000E+00
  1.70000000E+00  1.70000000E+00  1.70000000E+00  1.70000000E+00  1.30000000E+00
  1.70000000E+00  1.70000000E+00  1.70000000E+00  1.70000000E+00  1.70000000E+00
  1.30000000E+00  1.30000000E+00  1.70000000E+00  1.30000000E+00  1.70000000E+00
  1.70000000E+00  1.30000000E+00  1.30000000E+00  1.30000000E+00  1.70000000E+00
  1.70000000E+00  1.30000000E+00  1.70000000E+00  1.70000000E+00  1.30000000E+00
  1.70000000E+00  1.70000000E+00  1.30000000E+00  1.70000000E+00  1.70000000E+00
  1.30000000E+00  1.70000000E+00  1.30000000E+00  1.30000000E+00  1.30000000E+00
  1.70000000E+00  1.70000000E+00  1.70000000E+00  1.70000000E+00  1.70000000E+00
  1.30000000E+00  1.70000000E+00  1.70000000E+00  1.70000000E+00  1.70000000E+00
  1.70000000E+00  1.30000000E+00  1.30000000E+00  1.70000000E+00  1.30000000E+00
  1.70000000E+00  1.70000000E+00  1.30000000E+00  1.30000000E+00  1.30000000E+00
  1.70000000E+00  1.70000000E+00  1.30000000E+00  1.70000000E+00  1.70000000E+00
  1.30000000E+00  1.70000000E+00  1.70000000E+00  1.30000000E+00  1.70000000E+00
  1.70000000E+00  1.30000000E+00  1.70000000E+00  1.30000000E+00  1.30000000E+00
  1.30000000E+00  1.70000000E+00  1.70000000E+00  1.70000000E+00  1.70000000E+00
  1.70000000E+00  1.30000000E+00  1.70000000E+00  1.70000000E+00  1.70000000E+00
  1.70000000E+00  1.70000000E+00  1.30000000E+00  1.30000000E+00  1.70000000E+00
  1.30000000E+00  1.70000000E+00  1.70000000E+00  1.30000000E+00  1.30000000E+00
  1.30000000E+00  1.70000000E+00  1.70000000E+00  1.30000000E+00  1.70000000E+00
  1.70000000E+00  1.30000000E+00  1.70000000E+00  1.70000000E+00  1.30000000E+00
  1.70000000E+00  1.70000000E+00  1.30000000E+00  1.70000000E+00  1.30000000E+00
  1.30000000E+00  1.30000000E+00  1.70000000E+00  1.70000000E+00  1.70000000E+00
  1.70000000E+00  1.70000000E+00  1.30000000E+00  1.70000000E+00  1.70000000E+00
  1.70000000E+00  1.70000000E+00  1.70000000E+00  1.30000000E+00  1.30000000E+00
  1.70000000E+00  1.30000000E+00  1.70000000E+00  1.70000000E+00  1.30000000E+00
  1.30000000E+00  1.30000000E+00  1.70000000E+00  1.70000000E+00  1.30000000E+00
  1.70000000E+00  1.70000000E+00  1.30000000E+00  1.70000000E+00  1.70000000E+00
  1.30000000E+00  1.70000000E+00  1.70000000E+00  1.30000000E+00  1.70000000E+00
  1.30000000E+00  1.30000000E+00  1.30000000E+00  1.70000000E+00  1.70000000E+00
  1.70000000E+00  1.70000000E+00  1.70000000E+00  1.30000000E+00  1.70000000E+00
  1.70000000E+00  1.70000000E+00  1.70000000E+00  1.70000000E+00  1.30000000E+00
  1.30000000E+00  1.70000000E+00  1.30000000E+00  1.70000000E+00  1.70000000E+00
  1.30000000E+00  1.30000000E+00  1.30000000E+00  1.70000000E+00  1.70000000E+00
  1.30000000E+00  1.70000000E+00  1.70000000E+00  1.30000000E+00  1.70000000E+00
  1.70000000E+00  1.30000000E+00  1.70000000E+00  1.70000000E+00  1.30000000E+00
  1.70000000E+00  1.30000000E+00  1.30000000E+00  1.30000000E+00  1.70000000E+00
  1.70000000E+00  1.70000000E+00  1.70000000E+00  1.70000000E+00  1.30000000E+00
  1.70000000E+00  1.70000000E+00  1.70000000E+00  1.70000000E+00  1.70000000E+00
  1.30000000E+00  1.30000000E+00  1.70000000E+00  1.30000000E+00  1.70000000E+00
  1.70000000E+00  1.30000000E+00  1.30000000E+00  1.30000000E+00  1.70000000E+00
  1.70000000E+00  1.30000000E+00  1.70000000E+00  1.70000000E+00  1.30000000E+00
  1.70000000E+00  1.70000000E+00  1.30000000E+00  1.70000000E+00  1.70000000E+00
  1.30000000E+00  1.70000000E+00  1.30000000E+00  1.30000000E+00  1.30000000E+00
  1.70000000E+00  1.70000000E+00  1.70000000E+00  1.70000000E+00  1.70000000E+00
  1.30000000E+00  1.70000000E+00  1.70000000E+00  1.70000000E+00  1.70000000E+00
  1.70000000E+00  1.30000000E+00  1.30000000E+00  1.70000000E+00  1.30000000E+00
  1.70000000E+00  1.70000000E+00  1.30000000E+00  1.30000000E+00  1.30000000E+00
  1.70000000E+00  1.70000000E+00  1.30000000E+00  1.70000000E+00  1.70000000E+00
  1.30000000E+00  1.70000000E+00  1.70000000E+00  1.30000000E+00  1.70000000E+00
  1.70000000E+00  1.30000000E+00  1.70000000E+00  1.30000000E+00  1.30000000E+00
  1.30000000E+00  1.70000000E+00  1.70000000E+00  1.70000000E+00  1.70000000E+00
  1.70000000E+00  1.30000000E+00  1.70000000E+00  1.70000000E+00  1.70000000E+00
  1.70000000E+00  1.70000000E+00  1.30000000E+00  1.30000000E+00  1.70000000E+00
  1.30000000E+00  1.70000000E+00  1.70000000E+00  1.30000000E+00  1.30000000E+00
  1.30000000E+00  1.70000000E+00  1.70000000E+00  1.30000000E+00  1.70000000E+00
  1.70000000E+00  1.30000000E+00  1.70000000E+00  1.70000000E+00  1.30000000E+00
  1.70000000E+00  1.70000000E+00  1.30000000E+00  1.70000000E+00  1.30000000E+00
  1.30000000E+00  1.30000000E+00  1.70000000E+00  1.70000000E+00  1.70000000E+00
  1.70000000E+00  1.70000000E+00  1.30000000E+00  1.70000000E+00  1.70000000E+00
  1.70000000E+00  1.70000000E+00  1.70000000E+00  1.30000000E+00  1.30000000E+00
  1.70000000E+00  1.30000000E+00  1.70000000E+00  1.70000000E+00  1.30000000E+00
  1.30000000E+00  1.30000000E+00  1.70000000E+00  1.70000000E+00  1.30000000E+00
  1.70000000E+00  1.70000000E+00  1.30000000E+00  1.70000000E+00  1.70000000E+00
  1.30000000E+00  1.70000000E+00  1.70000000E+00  1.30000000E+00  1.70000000E+00
  1.30000000E+00  1.30000000E+00  1.30000000E+00  1.70000000E+00  1.70000000E+00
  1.70000000E+00  1.70000000E+00  1.70000000E+00  1.30000000E+00  1.70000000E+00
  1.70000000E+00  1.70000000E+00  1.70000000E+00  1.70000000E+00  1.30000000E+00
  1.30000000E+00  1.70000000E+00  1.30000000E+00  1.70000000E+00  1.70000000E+00
  1.30000000E+00  1.30000000E+00  1.30000000E+00  1.70000000E+00  1.70000000E+00
  1.30000000E+00  1.70000000E+00  1.70000000E+00  1.30000000E+00  1.70000000E+00
  1.70000000E+00  1.30000000E+00  1.70000000E+00  1.70000000E+00  1.30000000E+00
  1.70000000E+00  1.30000000E+00  1.30000000E+00  1.30000000E+00  1.70000000E+00
  1.70000000E+00  1.70000000E+00  1.70000000E+00  1.70000000E+00  1.30000000E+00
  1.70000000E+00  1.70000000E+00  1.70000000E+00  1.70000000E+00  1.70000000E+00
  1.30000000E+00  1.30000000E+00  1.70000000E+00  1.30000000E+00  1.70000000E+00
  1.70000000E+00  1.30000000E+00  1.30000000E+00  1.30000000E+00  1.70000000E+00
  1.70000000E+00  1.30000000E+00  1.70000000E+00  1.70000000E+00  1.30000000E+00
  1.70000000E+00  1.70000000E+00  1.30000000E+00  1.70000000E+00  1.70000000E+00
  1.30000000E+00  1.70000000E+00  1.30000000E+00  1.30000000E+00  1.30000000E+00
  1.70000000E+00  1.70000000E+00  1.70000000E+00  1.70000000E+00  1.70000000E+00
  1.30000000E+00  1.70000000E+00  1.70000000E+00  1.70000000E+00  1.70000000E+00
  1.70000000E+00  1.30000000E+00  1.30000000E+00  1.70000000E+00  1.30000000E+00
  1.70000000E+00  1.70000000E+00  1.30000000E+00  1.30000000E+00  1.30000000E+00
  1.70000000E+00  1.70000000E+00  1.30000000E+00  1.70000000E+00  1.70000000E+00
  1.30000000E+00  1.70000000E+00  1.70000000E+00  1.30000000E+00  1.70000000E+00
  1.70000000E+00  1.30000000E+00  1.70000000E+00  1.30000000E+00  1.30000000E+00
  1.30000000E+00  1.70000000E+00  1.70000000E+00  1.70000000E+00  1.70000000E+00
  1.70000000E+00  1.30000000E+00  1.70000000E+00  1.70000000E+00  1.70000000E+00
  1.70000000E+00  1.70000000E+00  1.30000000E+00  1.30000000E+00  1.70000000E+00
  1.30000000E+00  1.70000000E+00  1.70000000E+00  1.30000000E+00  1.30000000E+00
  1.30000000E+00  1.70000000E+00  1.70000000E+00  1.30000000E+00  1.70000000E+00
  1.70000000E+00  1.30000000E+00  1.70000000E+00  1.70000000E+00  1.30000000E+00
  1.70000000E+00  1.70000000E+00  1.30000000E+00  1.70000000E+00  1.30000000E+00
  1.30000000E+00  1.30000000E+00  1.70000000E+00  1.70000000E+00  1.70000000E+00
  1.70000000E+00  1.70000000E+00  1.30000000E+00  1.70000000E+00  1.70000000E+00
  1.70000000E+00  1.70000000E+00  1.70000000E+00  1.30000000E+00  1.30000000E+00
  1.70000000E+00  1.30000000E+00  1.70000000E+00  1.70000000E+00  1.30000000E+00
  1.30000000E+00  1.30000000E+00  1.70000000E+00  1.70000000E+00  1.30000000E+00
  1.70000000E+00  1.70000000E+00  1.30000000E+00  1.70000000E+00  1.70000000E+00
  1.30000000E+00  1.70000000E+00  1.70000000E+00  1.30000000E+00  1.70000000E+00
  1.30000000E+00  1.30000000E+00  1.30000000E+00  1.70000000E+00  1.70000000E+00
  1.70000000E+00  1.70000000E+00  1.70000000E+00  1.30000000E+00  1.70000000E+00
  1.70000000E+00  1.70000000E+00  1.70000000E+00  1.70000000E+00  1.30000000E+00
  1.30000000E+00  1.70000000E+00  1.30000000E+00  1.70000000E+00  1.70000000E+00
  1.30000000E+00  1.30000000E+00  1.30000000E+00  1.70000000E+00  1.70000000E+00
  1.30000000E+00  1.70000000E+00  1.70000000E+00  1.30000000E+00  1.70000000E+00
  1.70000000E+00  1.30000000E+00  1.70000000E+00  1.70000000E+00  1.30000000E+00
  1.70000000E+00  1.30000000E+00  1.30000000E+00  1.30000000E+00  1.70000000E+00
  1.70000000E+00  1.70000000E+00  1.70000000E+00  1.70000000E+00  1.30000000E+00
  1.70000000E+00  1.70000000E+00  1.70000000E+00  1.70000000E+00  1.70000000E+00
  1.30000000E+00  1.30000000E+00  1.70000000E+00  1.30000000E+00  1.70000000E+00
  1.70000000E+00  1.30000000E+00  1.30000000E+00  1.30000000E+00  1.70000000E+00
  1.70000000E+00  1.30000000E+00  1.70000000E+00  1.70000000E+00  1.30000000E+00
  1.70000000E+00  1.70000000E+00  1.30000000E+00  1.70000000E+00  1.70000000E+00
  1.30000000E+00  1.70000000E+00  1.30000000E+00  1.30000000E+00  1.30000000E+00
  1.70000000E+00  1.70000000E+00  1.70000000E+00  1.70000000E+00  1.70000000E+00
  1.30000000E+00  1.70000000E+00  1.70000000E+00  1.70000000E+00  1.70000000E+00
  1.70000000E+00  1.30000000E+00  1.30000000E+00  1.70000000E+00  1.30000000E+00
  1.70000000E+00  1.70000000E+00  1.30000000E+00  1.30000000E+00  1.30000000E+00
  1.70000000E+00  1.70000000E+00  1.30000000E+00  1.70000000E+00  1.70000000E+00
  1.30000000E+00  1.70000000E+00  1.70000000E+00  1.30000000E+00  1.70000000E+00
  1.70000000E+00  1.30000000E+00  1.70000000E+00  1.30000000E+00  1.30000000E+00
  1.30000000E+00  1.70000000E+00  1.70000000E+00  1.70000000E+00  1.70000000E+00
  1.70000000E+00  1.30000000E+00  1.70000000E+00  1.70000000E+00  1.70000000E+00
  1.70000000E+00  1.70000000E+00  1.30000000E+00  1.30000000E+00  1.70000000E+00
  1.30000000E+00  1.70000000E+00  1.70000000E+00  1.30000000E+00  1.30000000E+00
  1.30000000E+00  1.70000000E+00  1.70000000E+00  1.30000000E+00  1.70000000E+00
  1.70000000E+00  1.30000000E+00  1.70000000E+00  1.70000000E+00  1.30000000E+00
  1.70000000E+00  1.70000000E+00  1.30000000E+00  1.70000000E+00  1.30000000E+00
  1.30000000E+00  1.30000000E+00  1.70000000E+00  1.70000000E+00  1.70000000E+00
  1.70000000E+00  1.70000000E+00  1.30000000E+00  1.70000000E+00  1.70000000E+00
  1.70000000E+00  1.70000000E+00  1.70000000E+00  1.30000000E+00  1.30000000E+00
  1.70000000E+00  1.30000000E+00  1.70000000E+00  1.70000000E+00  1.30000000E+00
  1.30000000E+00  1.30000000E+00  1.70000000E+00  1.70000000E+00  1.30000000E+00
  1.70000000E+00  1.70000000E+00  1.30000000E+00  1.70000000E+00  1.70000000E+00
  1.30000000E+00  1.70000000E+00  1.70000000E+00  1.30000000E+00  1.70000000E+00
  1.30000000E+00  1.30000000E+00  1.30000000E+00  1.70000000E+00  1.70000000E+00
  1.70000000E+00  1.70000000E+00  1.70000000E+00  1.30000000E+00  1.70000000E+00
  1.70000000E+00  1.70000000E+00  1.70000000E+00  1.70000000E+00  1.30000000E+00
  1.30000000E+00  1.70000000E+00  1.30000000E+00  1.70000000E+00  1.70000000E+00
  1.30000000E+00  1.30000000E+00  1.30000000E+00  1.70000000E+00  1.70000000E+00
  1.30000000E+00  1.70000000E+00  1.70000000E+00  1.30000000E+00  1.70000000E+00
  1.70000000E+00  1.30000000E+00  1.70000000E+00  1.70000000E+00  1.30000000E+00
  1.70000000E+00  1.30000000E+00  1.30000000E+00  1.30000000E+00  1.70000000E+00
  1.70000000E+00  1.70000000E+00  1.70000000E+00  1.70000000E+00  1.30000000E+00
  1.70000000E+00  1.70000000E+00  1.70000000E+00  1.70000000E+00  1.70000000E+00
  1.30000000E+00  1.30000000E+00  1.70000000E+00  1.30000000E+00  1.70000000E+00
  1.70000000E+00  1.30000000E+00  1.30000000E+00  1.30000000E+00  1.70000000E+00
  1.70000000E+00  1.30000000E+00  1.70000000E+00  1.70000000E+00  1.30000000E+00
  1.70000000E+00  1.70000000E+00  1.30000000E+00  1.70000000E+00  1.70000000E+00
  1.30000000E+00  1.70000000E+00  1.30000000E+00  1.30000000E+00  1.30000000E+00
  1.70000000E+00  1.70000000E+00  1.70000000E+00  1.70000000E+00  1.70000000E+00
  1.30000000E+00  1.70000000E+00  1.70000000E+00  1.70000000E+00  1.70000000E+00
  1.70000000E+00  1.30000000E+00  1.30000000E+00  1.70000000E+00  1.30000000E+00
  1.70000000E+00  1.70000000E+00  1.30000000E+00  1.30000000E+00  1.30000000E+00
  1.70000000E+00  1.70000000E+00  1.30000000E+00  1.70000000E+00  1.70000000E+00
  1.30000000E+00  1.70000000E+00  1.70000000E+00  1.30000000E+00  1.70000000E+00
  1.70000000E+00  1.30000000E+00  1.70000000E+00  1.30000000E+00  1.30000000E+00
  1.30000000E+00  1.70000000E+00  1.70000000E+00  1.70000000E+00  1.70000000E+00
  1.70000000E+00  1.30000000E+00  1.70000000E+00  1.70000000E+00  1.70000000E+00
  1.70000000E+00  1.70000000E+00  1.30000000E+00  1.30000000E+00  1.70000000E+00
  1.30000000E+00  1.70000000E+00  1.70000000E+00  1.30000000E+00  1.30000000E+00
  1.30000000E+00  1.70000000E+00  1.70000000E+00  1.30000000E+00  1.70000000E+00
  1.70000000E+00  1.30000000E+00  1.70000000E+00  1.70000000E+00  1.30000000E+00
  1.70000000E+00  1.70000000E+00  1.30000000E+00  1.70000000E+00  1.30000000E+00
  1.30000000E+00  1.30000000E+00  1.70000000E+00  1.70000000E+00  1.70000000E+00
  1.70000000E+00  1.70000000E+00  1.30000000E+00  1.70000000E+00  1.70000000E+00
  1.70000000E+00  1.70000000E+00  1.70000000E+00  1.30000000E+00  1.30000000E+00
  1.70000000E+00  1.30000000E+00  1.70000000E+00  1.70000000E+00  1.30000000E+00
  1.30000000E+00  1.30000000E+00  1.70000000E+00  1.70000000E+00  1.30000000E+00
  1.70000000E+00  1.70000000E+00  1.30000000E+00  1.70000000E+00  1.70000000E+00
  1.30000000E+00  1.70000000E+00  1.70000000E+00  1.30000000E+00  1.70000000E+00
  1.30000000E+00  1.30000000E+00  1.30000000E+00  1.70000000E+00  1.70000000E+00
  1.70000000E+00  1.70000000E+00  1.70000000E+00  1.30000000E+00  1.70000000E+00
  1.70000000E+00  1.70000000E+00  1.70000000E+00  1.70000000E+00  1.30000000E+00
  1.30000000E+00  1.70000000E+00  1.30000000E+00  1.70000000E+00  1.70000000E+00
  1.30000000E+00  1.30000000E+00  1.30000000E+00  1.70000000E+00  1.70000000E+00
  1.30000000E+00  1.70000000E+00  1.70000000E+00  1.30000000E+00  1.70000000E+00
  1.70000000E+00  1.30000000E+00  1.70000000E+00  1.70000000E+00  1.30000000E+00
  1.70000000E+00  1.30000000E+00  1.30000000E+00  1.30000000E+00  1.70000000E+00
  1.70000000E+00  1.70000000E+00  1.70000000E+00  1.70000000E+00  1.30000000E+00
  1.70000000E+00  1.70000000E+00  1.70000000E+00  1.70000000E+00  1.70000000E+00
  1.30000000E+00  1.30000000E+00  1.70000000E+00  1.30000000E+00  1.70000000E+00
  1.70000000E+00  1.30000000E+00  1.30000000E+00  1.30000000E+00  1.70000000E+00
  1.70000000E+00  1.30000000E+00  1.70000000E+00  1.70000000E+00  1.30000000E+00
  1.70000000E+00  1.70000000E+00  1.30000000E+00  1.70000000E+00  1.70000000E+00
  1.30000000E+00  1.70000000E+00  1.30000000E+00  1.30000000E+00  1.30000000E+00
  1.70000000E+00  1.70000000E+00  1.70000000E+00  1.70000000E+00  1.70000000E+00
  1.30000000E+00  1.70000000E+00  1.70000000E+00  1.70000000E+00  1.70000000E+00
  1.70000000E+00  1.30000000E+00  1.30000000E+00  1.70000000E+00  1.30000000E+00
  1.70000000E+00  1.70000000E+00  1.30000000E+00  1.30000000E+00  1.30000000E+00
  1.70000000E+00  1.70000000E+00  1.30000000E+00  1.70000000E+00  1.70000000E+00
  1.30000000E+00  1.70000000E+00  1.70000000E+00  1.30000000E+00  1.70000000E+00
  1.70000000E+00  1.30000000E+00  1.70000000E+00  1.30000000E+00  1.30000000E+00
  1.30000000E+00  1.70000000E+00  1.70000000E+00  1.70000000E+00  1.70000000E+00
  1.70000000E+00  1.30000000E+00  1.70000000E+00  1.70000000E+00  1.70000000E+00
  1.70000000E+00  1.70000000E+00  1.30000000E+00  1.30000000E+00  1.70000000E+00
  1.30000000E+00  1.70000000E+00  1.70000000E+00  1.30000000E+00  1.30000000E+00
  1.30000000E+00  1.70000000E+00  1.70000000E+00  1.30000000E+00  1.70000000E+00
  1.70000000E+00  1.30000000E+00  1.70000000E+00  1.70000000E+00  1.30000000E+00
  1.70000000E+00  1.70000000E+00  1.30000000E+00  1.70000000E+00  1.30000000E+00
  1.30000000E+00  1.30000000E+00  1.70000000E+00  1.70000000E+00  1.70000000E+00
  1.70000000E+00  1.70000000E+00  1.30000000E+00  1.70000000E+00  1.70000000E+00
  1.70000000E+00  1.70000000E+00  1.70000000E+00  1.30000000E+00  1.30000000E+00
  1.70000000E+00  1.30000000E+00  1.70000000E+00  1.70000000E+00  1.30000000E+00
  1.30000000E+00  1.30000000E+00  1.70000000E+00  1.70000000E+00  1.30000000E+00
  1.70000000E+00  1.70000000E+00  1.30000000E+00  1.70000000E+00  1.70000000E+00
  1.30000000E+00  1.70000000E+00  1.70000000E+00  1.30000000E+00  1.70000000E+00
  1.30000000E+00  1.30000000E+00  1.30000000E+00  1.70000000E+00  1.70000000E+00
  1.70000000E+00  1.70000000E+00  1.70000000E+00  1.30000000E+00  1.70000000E+00
  1.70000000E+00  1.70000000E+00  1.70000000E+00  1.70000000E+00  1.30000000E+00
  1.30000000E+00  1.70000000E+00  1.30000000E+00  1.70000000E+00  1.70000000E+00
  1.30000000E+00  1.30000000E+00  1.30000000E+00  1.70000000E+00  1.70000000E+00
  1.30000000E+00  1.70000000E+00  1.70000000E+00  1.30000000E+00  1.70000000E+00
  1.70000000E+00  1.30000000E+00  1.70000000E+00  1.70000000E+00  1.30000000E+00
  1.70000000E+00  1.30000000E+00  1.30000000E+00  1.30000000E+00  1.70000000E+00
  1.70000000E+00  1.70000000E+00  1.70000000E+00  1.70000000E+00  1.30000000E+00
  1.70000000E+00  1.70000000E+00  1.70000000E+00  1.70000000E+00  1.70000000E+00
  1.30000000E+00  1.30000000E+00  1.70000000E+00  1.30000000E+00  1.70000000E+00
  1.70000000E+00  1.30000000E+00  1.30000000E+00  1.30000000E+00  1.70000000E+00
  1.70000000E+00  1.30000000E+00  1.70000000E+00  1.70000000E+00  1.30000000E+00
  1.70000000E+00  1.70000000E+00  1.30000000E+00  1.70000000E+00  1.70000000E+00
  1.30000000E+00  1.70000000E+00  1.30000000E+00  1.30000000E+00  1.30000000E+00
  1.70000000E+00  1.70000000E+00  1.70000000E+00  1.70000000E+00  1.70000000E+00
  1.30000000E+00  1.70000000E+00  1.70000000E+00  1.70000000E+00  1.70000000E+00
  1.70000000E+00  1.30000000E+00  1.30000000E+00  1.70000000E+00  1.30000000E+00
  1.70000000E+00  1.70000000E+00  1.30000000E+00  1.30000000E+00  1.30000000E+00
  1.70000000E+00  1.70000000E+00  1.30000000E+00  1.70000000E+00  1.70000000E+00
  1.30000000E+00  1.70000000E+00  1.70000000E+00  1.30000000E+00  1.70000000E+00
  1.70000000E+00  1.30000000E+00  1.70000000E+00  1.30000000E+00  1.30000000E+00
  1.30000000E+00  1.70000000E+00  1.70000000E+00  1.70000000E+00  1.70000000E+00
  1.70000000E+00  1.30000000E+00  1.70000000E+00  1.70000000E+00  1.70000000E+00
  1.70000000E+00  1.70000000E+00  1.30000000E+00  1.30000000E+00  1.70000000E+00
  1.30000000E+00  1.70000000E+00  1.70000000E+00  1.30000000E+00  1.30000000E+00
  1.30000000E+00  1.70000000E+00  1.70000000E+00  1.30000000E+00  1.70000000E+00
  1.70000000E+00  1.30000000E+00  1.70000000E+00  1.70000000E+00  1.30000000E+00
  1.70000000E+00  1.70000000E+00  1.30000000E+00  1.70000000E+00  1.30000000E+00
  1.30000000E+00  1.30000000E+00  1.70000000E+00  1.70000000E+00  1.70000000E+00
  1.70000000E+00  1.70000000E+00  1.30000000E+00  1.70000000E+00  1.70000000E+00
  1.70000000E+00  1.70000000E+00  1.70000000E+00  1.30000000E+00  1.30000000E+00
  1.70000000E+00  1.30000000E+00  1.70000000E+00  1.70000000E+00  1.30000000E+00
  1.30000000E+00  1.30000000E+00  1.70000000E+00  1.70000000E+00  1.30000000E+00
  1.70000000E+00  1.70000000E+00  1.30000000E+00  1.70000000E+00  1.70000000E+00
  1.30000000E+00  1.70000000E+00  1.70000000E+00  1.30000000E+00  1.70000000E+00
  1.30000000E+00  1.30000000E+00  1.30000000E+00  1.70000000E+00  1.70000000E+00
  1.70000000E+00  1.70000000E+00  1.70000000E+00  1.30000000E+00  1.70000000E+00
  1.70000000E+00  1.70000000E+00  1.70000000E+00  1.70000000E+00  1.30000000E+00
  1.30000000E+00  1.70000000E+00  1.30000000E+00  1.70000000E+00  1.70000000E+00
  1.30000000E+00  1.30000000E+00  1.30000000E+00  1.70000000E+00  1.70000000E+00
  1.30000000E+00  1.70000000E+00  1.70000000E+00  1.30000000E+00  1.70000000E+00
  1.70000000E+00  1.30000000E+00  1.70000000E+00  1.70000000E+00  1.30000000E+00
  1.70000000E+00  1.30000000E+00  1.30000000E+00  1.30000000E+00  1.70000000E+00
  1.70000000E+00  1.70000000E+00  1.70000000E+00  1.70000000E+00  1.30000000E+00
  1.70000000E+00  1.70000000E+00  1.70000000E+00  1.70000000E+00  1.70000000E+00
  1.30000000E+00  1.30000000E+00  1.70000000E+00  1.30000000E+00  1.70000000E+00
  1.70000000E+00  1.30000000E+00  1.30000000E+00  1.30000000E+00  1.70000000E+00
  1.70000000E+00  1.30000000E+00  1.70000000E+00  1.70000000E+00  1.30000000E+00
  1.70000000E+00  1.70000000E+00  1.30000000E+00  1.70000000E+00  1.70000000E+00
  1.30000000E+00  1.70000000E+00  1.30000000E+00  1.30000000E+00  1.30000000E+00
  1.70000000E+00  1.70000000E+00  1.70000000E+00  1.70000000E+00  1.70000000E+00
  1.30000000E+00  1.70000000E+00  1.70000000E+00  1.70000000E+00  1.70000000E+00
  1.70000000E+00  1.30000000E+00  1.30000000E+00  1.70000000E+00  1.30000000E+00
  1.70000000E+00  1.70000000E+00  1.30000000E+00  1.30000000E+00  1.30000000E+00
  1.70000000E+00  1.70000000E+00  1.30000000E+00  1.70000000E+00  1.70000000E+00
  1.30000000E+00  1.70000000E+00  1.70000000E+00  1.30000000E+00  1.70000000E+00
  1.70000000E+00  1.30000000E+00  1.70000000E+00  1.30000000E+00  1.30000000E+00
  1.30000000E+00  1.70000000E+00  1.70000000E+00  1.70000000E+00  1.70000000E+00
  1.70000000E+00  1.30000000E+00  1.70000000E+00  1.70000000E+00  1.70000000E+00
  1.70000000E+00  1.70000000E+00  1.30000000E+00  1.30000000E+00  1.70000000E+00
  1.30000000E+00  1.70000000E+00  1.70000000E+00  1.30000000E+00  1.30000000E+00
  1.30000000E+00  1.70000000E+00  1.70000000E+00  1.30000000E+00  1.70000000E+00
  1.70000000E+00  1.30000000E+00  1.70000000E+00  1.70000000E+00  1.30000000E+00
  1.70000000E+00  1.70000000E+00  1.30000000E+00  1.70000000E+00  1.30000000E+00
  1.30000000E+00  1.30000000E+00  1.70000000E+00  1.70000000E+00  1.70000000E+00
  1.70000000E+00  1.70000000E+00  1.30000000E+00  1.70000000E+00  1.70000000E+00
  1.70000000E+00  1.70000000E+00  1.70000000E+00  1.30000000E+00  1.30000000E+00
  1.70000000E+00  1.30000000E+00  1.70000000E+00  1.70000000E+00  1.30000000E+00
  1.30000000E+00  1.30000000E+00  1.70000000E+00  1.70000000E+00  1.30000000E+00
  1.70000000E+00  1.70000000E+00  1.30000000E+00  1.70000000E+00  1.70000000E+00
  1.30000000E+00  1.70000000E+00  1.70000000E+00  1.30000000E+00  1.70000000E+00
  1.30000000E+00  1.30000000E+00  1.30000000E+00  1.70000000E+00  1.70000000E+00
  1.70000000E+00  1.70000000E+00  1.70000000E+00  1.30000000E+00  1.70000000E+00
  1.70000000E+00  1.70000000E+00  1.70000000E+00  1.70000000E+00  1.30000000E+00
  1.30000000E+00  1.70000000E+00  1.30000000E+00  1.70000000E+00  1.70000000E+00
  1.30000000E+00  1.30000000E+00  1.30000000E+00  1.70000000E+00  1.70000000E+00
  1.30000000E+00  1.70000000E+00  1.70000000E+00  1.30000000E+00  1.70000000E+00
  1.70000000E+00  1.30000000E+00  1.70000000E+00  1.70000000E+00  1.30000000E+00
  1.70000000E+00  1.30000000E+00  1.30000000E+00  1.30000000E+00  1.70000000E+00
  1.70000000E+00  1.70000000E+00  1.70000000E+00  1.70000000E+00  1.30000000E+00
  1.70000000E+00  1.70000000E+00  1.70000000E+00  1.70000000E+00  1.70000000E+00
  1.30000000E+00  1.30000000E+00  1.70000000E+00  1.30000000E+00  1.70000000E+00
  1.70000000E+00  1.30000000E+00  1.30000000E+00  1.30000000E+00  1.70000000E+00
  1.70000000E+00  1.30000000E+00  1.70000000E+00  1.70000000E+00  1.30000000E+00
  1.70000000E+00  1.70000000E+00  1.30000000E+00  1.70000000E+00  1.70000000E+00
  1.30000000E+00  1.70000000E+00  1.30000000E+00  1.30000000E+00  1.30000000E+00
  1.70000000E+00  1.70000000E+00  1.70000000E+00  1.70000000E+00  1.70000000E+00
  1.30000000E+00  1.70000000E+00  1.70000000E+00  1.70000000E+00  1.70000000E+00
  1.70000000E+00  1.30000000E+00  1.30000000E+00  1.70000000E+00  1.30000000E+00
  1.70000000E+00  1.70000000E+00  1.30000000E+00  1.30000000E+00  1.30000000E+00
  1.70000000E+00  1.70000000E+00  1.30000000E+00  1.70000000E+00  1.70000000E+00
  1.30000000E+00  1.70000000E+00  1.70000000E+00  1.30000000E+00  1.70000000E+00
  1.70000000E+00  1.30000000E+00  1.70000000E+00  1.30000000E+00  1.30000000E+00
  1.30000000E+00  1.70000000E+00  1.70000000E+00  1.70000000E+00  1.70000000E+00
  1.70000000E+00  1.30000000E+00  1.70000000E+00  1.70000000E+00  1.70000000E+00
  1.70000000E+00  1.70000000E+00  1.30000000E+00  1.30000000E+00  1.70000000E+00
  1.30000000E+00  1.70000000E+00  1.70000000E+00  1.30000000E+00  1.30000000E+00
  1.30000000E+00  1.70000000E+00  1.70000000E+00  1.30000000E+00  1.70000000E+00
  1.70000000E+00  1.30000000E+00  1.70000000E+00  1.70000000E+00  1.30000000E+00
  1.70000000E+00  1.70000000E+00  1.30000000E+00  1.70000000E+00  1.30000000E+00
  1.30000000E+00  1.30000000E+00  1.70000000E+00  1.70000000E+00  1.70000000E+00
  1.70000000E+00  1.70000000E+00  1.30000000E+00  1.70000000E+00  1.70000000E+00
  1.70000000E+00  1.70000000E+00  1.70000000E+00  1.30000000E+00  1.30000000E+00
  1.70000000E+00  1.30000000E+00  1.70000000E+00  1.70000000E+00  1.30000000E+00
  1.30000000E+00  1.30000000E+00  1.70000000E+00  1.70000000E+00  1.30000000E+00
  1.70000000E+00  1.70000000E+00  1.30000000E+00  1.70000000E+00  1.70000000E+00
  1.30000000E+00  1.70000000E+00  1.70000000E+00  1.30000000E+00  1.70000000E+00
  1.30000000E+00  1.30000000E+00  1.30000000E+00  1.70000000E+00  1.70000000E+00
  1.70000000E+00  1.70000000E+00  1.70000000E+00  1.30000000E+00  1.70000000E+00
  1.70000000E+00  1.70000000E+00  1.70000000E+00  1.70000000E+00  1.30000000E+00
  1.30000000E+00  1.70000000E+00  1.30000000E+00  1.70000000E+00  1.70000000E+00
  1.30000000E+00  1.30000000E+00  1.30000000E+00  1.70000000E+00  1.70000000E+00
  1.30000000E+00  1.70000000E+00  1.70000000E+00  1.30000000E+00  1.70000000E+00
  1.70000000E+00  1.30000000E+00  1.70000000E+00  1.70000000E+00  1.30000000E+00
  1.70000000E+00  1.30000000E+00  1.30000000E+00  1.30000000E+00  1.70000000E+00
  1.70000000E+00  1.70000000E+00  1.70000000E+00  1.70000000E+00  1.30000000E+00
  1.70000000E+00  1.70000000E+00  1.70000000E+00  1.70000000E+00  1.70000000E+00
  1.30000000E+00  1.30000000E+00  1.70000000E+00  1.30000000E+00  1.70000000E+00
  1.70000000E+00  1.30000000E+00  1.30000000E+00  1.30000000E+00  1.70000000E+00
  1.70000000E+00  1.30000000E+00  1.70000000E+00  1.70000000E+00  1.30000000E+00
  1.70000000E+00  1.70000000E+00  1.30000000E+00  1.70000000E+00  1.70000000E+00
  1.30000000E+00  1.70000000E+00  1.30000000E+00  1.30000000E+00  1.30000000E+00
  1.70000000E+00  1.70000000E+00  1.70000000E+00  1.70000000E+00  1.70000000E+00
  1.30000000E+00  1.70000000E+00  1.70000000E+00  1.70000000E+00  1.70000000E+00
  1.70000000E+00  1.30000000E+00  1.30000000E+00  1.70000000E+00  1.30000000E+00
  1.70000000E+00  1.70000000E+00  1.30000000E+00  1.30000000E+00  1.30000000E+00
  1.70000000E+00  1.70000000E+00  1.30000000E+00  1.70000000E+00  1.70000000E+00
  1.30000000E+00  1.70000000E+00  1.70000000E+00  1.30000000E+00  1.70000000E+00
  1.70000000E+00  1.30000000E+00  1.70000000E+00  1.30000000E+00  1.30000000E+00
  1.30000000E+00  1.70000000E+00  1.70000000E+00  1.70000000E+00  1.70000000E+00
  1.70000000E+00  1.30000000E+00  1.70000000E+00  1.70000000E+00  1.70000000E+00
  1.70000000E+00  1.70000000E+00  1.30000000E+00  1.30000000E+00  1.70000000E+00
  1.30000000E+00  1.70000000E+00  1.70000000E+00  1.30000000E+00  1.30000000E+00
  1.30000000E+00  1.70000000E+00  1.70000000E+00  1.30000000E+00  1.70000000E+00
  1.70000000E+00  1.30000000E+00  1.70000000E+00  1.70000000E+00  1.30000000E+00
  1.70000000E+00  1.70000000E+00  1.30000000E+00  1.70000000E+00  1.30000000E+00
  1.30000000E+00  1.30000000E+00  1.70000000E+00  1.70000000E+00  1.70000000E+00
  1.70000000E+00  1.70000000E+00  1.30000000E+00  1.70000000E+00  1.70000000E+00
  1.70000000E+00  1.70000000E+00  1.70000000E+00  1.30000000E+00  1.30000000E+00
  1.70000000E+00  1.30000000E+00  1.70000000E+00  1.70000000E+00  1.30000000E+00
  1.30000000E+00  1.30000000E+00  1.70000000E+00  1.70000000E+00  1.30000000E+00
  1.70000000E+00  1.70000000E+00  1.30000000E+00  1.70000000E+00  1.70000000E+00
  1.30000000E+00  1.70000000E+00  1.70000000E+00  1.30000000E+00  1.70000000E+00
  1.30000000E+00  1.30000000E+00  1.30000000E+00  1.70000000E+00  1.70000000E+00
  1.70000000E+00  1.70000000E+00  1.70000000E+00  1.30000000E+00  1.70000000E+00
  1.70000000E+00  1.70000000E+00  1.70000000E+00  1.70000000E+00  1.30000000E+00
  1.30000000E+00  1.70000000E+00  1.30000000E+00  1.70000000E+00  1.70000000E+00
  1.30000000E+00  1.30000000E+00  1.30000000E+00  1.70000000E+00  1.70000000E+00
  1.30000000E+00  1.70000000E+00  1.70000000E+00  1.30000000E+00  1.70000000E+00
  1.70000000E+00  1.30000000E+00  1.70000000E+00  1.70000000E+00  1.30000000E+00
  1.70000000E+00  1.30000000E+00  1.30000000E+00  1.30000000E+00  1.70000000E+00
  1.70000000E+00  1.70000000E+00  1.70000000E+00  1.70000000E+00  1.30000000E+00
  1.70000000E+00  1.70000000E+00  1.70000000E+00  1.70000000E+00  1.70000000E+00
  1.30000000E+00  1.30000000E+00  1.70000000E+00  1.30000000E+00  1.70000000E+00
  1.70000000E+00  1.30000000E+00  1.30000000E+00  1.30000000E+00  1.70000000E+00
  1.70000000E+00  1.30000000E+00  1.70000000E+00  1.70000000E+00  1.30000000E+00
  1.70000000E+00  1.70000000E+00  1.30000000E+00  1.70000000E+00  1.70000000E+00
  1.30000000E+00  1.70000000E+00  1.30000000E+00  1.30000000E+00  1.30000000E+00
  1.70000000E+00  1.70000000E+00  1.70000000E+00  1.70000000E+00  1.70000000E+00
  1.30000000E+00  1.70000000E+00  1.70000000E+00  1.70000000E+00  1.70000000E+00
  1.70000000E+00  1.30000000E+00  1.30000000E+00  1.70000000E+00  1.30000000E+00
  1.70000000E+00  1.70000000E+00  1.30000000E+00  1.30000000E+00  1.30000000E+00
  1.70000000E+00  1.70000000E+00  1.30000000E+00  1.70000000E+00  1.70000000E+00
  1.30000000E+00  1.70000000E+00  1.70000000E+00  1.30000000E+00  1.70000000E+00
  1.70000000E+00  1.30000000E+00  1.70000000E+00  1.30000000E+00  1.30000000E+00
  1.30000000E+00  1.70000000E+00  1.70000000E+00  1.70000000E+00  1.70000000E+00
  1.70000000E+00  1.30000000E+00  1.70000000E+00  1.70000000E+00  1.70000000E+00
  1.70000000E+00  1.70000000E+00  1.30000000E+00  1.30000000E+00  1.70000000E+00
  1.30000000E+00  1.70000000E+00  1.70000000E+00  1.30000000E+00  1.30000000E+00
  1.30000000E+00  1.70000000E+00  1.70000000E+00  1.30000000E+00  1.70000000E+00
  1.70000000E+00  1.30000000E+00  1.70000000E+00  1.70000000E+00  1.30000000E+00
  1.70000000E+00  1.70000000E+00  1.30000000E+00  1.70000000E+00  1.30000000E+00
  1.30000000E+00  1.30000000E+00  1.70000000E+00  1.70000000E+00  1.70000000E+00
  1.70000000E+00  1.70000000E+00  1.30000000E+00  1.70000000E+00  1.70000000E+00
  1.70000000E+00  1.70000000E+00  1.70000000E+00  1.30000000E+00  1.30000000E+00
  1.70000000E+00  1.30000000E+00  1.70000000E+00  1.70000000E+00  1.30000000E+00
  1.30000000E+00  1.30000000E+00  1.70000000E+00  1.70000000E+00  1.30000000E+00
  1.70000000E+00  1.70000000E+00  1.30000000E+00  1.70000000E+00  1.70000000E+00
  1.30000000E+00  1.70000000E+00  1.70000000E+00  1.30000000E+00  1.70000000E+00
  1.30000000E+00  1.30000000E+00  1.30000000E+00  1.70000000E+00  1.70000000E+00
  1.70000000E+00  1.70000000E+00  1.70000000E+00  1.30000000E+00  1.70000000E+00
  1.70000000E+00  1.70000000E+00  1.70000000E+00  1.70000000E+00  1.30000000E+00
  1.30000000E+00  1.70000000E+00  1.30000000E+00  1.70000000E+00  1.70000000E+00
  1.30000000E+00  1.30000000E+00  1.30000000E+00  1.70000000E+00  1.70000000E+00
  1.30000000E+00  1.70000000E+00  1.70000000E+00  1.30000000E+00  1.70000000E+00
  1.70000000E+00  1.30000000E+00  1.70000000E+00  1.70000000E+00  1.30000000E+00
  1.70000000E+00  1.30000000E+00  1.30000000E+00  1.30000000E+00  1.70000000E+00
  1.70000000E+00  1.70000000E+00  1.70000000E+00  1.70000000E+00  1.30000000E+00
  1.70000000E+00  1.70000000E+00  1.70000000E+00  1.70000000E+00  1.70000000E+00
  1.30000000E+00  1.30000000E+00  1.70000000E+00  1.30000000E+00  1.70000000E+00
  1.70000000E+00  1.30000000E+00  1.30000000E+00  1.30000000E+00  1.70000000E+00
  1.70000000E+00  1.30000000E+00  1.70000000E+00  1.70000000E+00  1.30000000E+00
  1.70000000E+00  1.70000000E+00  1.30000000E+00  1.70000000E+00  1.70000000E+00
  1.30000000E+00  1.70000000E+00  1.30000000E+00  1.30000000E+00  1.30000000E+00
  1.70000000E+00  1.70000000E+00  1.70000000E+00  1.70000000E+00  1.70000000E+00
  1.30000000E+00  1.70000000E+00  1.70000000E+00  1.70000000E+00  1.70000000E+00
  1.70000000E+00  1.30000000E+00  1.30000000E+00  1.70000000E+00  1.30000000E+00
  1.70000000E+00  1.70000000E+00  1.30000000E+00  1.30000000E+00  1.30000000E+00
  1.70000000E+00  1.70000000E+00  1.30000000E+00  1.70000000E+00  1.70000000E+00
  1.30000000E+00  1.70000000E+00  1.70000000E+00  1.30000000E+00  1.70000000E+00
  1.70000000E+00  1.30000000E+00  1.70000000E+00  1.30000000E+00  1.30000000E+00
  1.30000000E+00  1.70000000E+00  1.70000000E+00  1.70000000E+00  1.70000000E+00
  1.70000000E+00  1.30000000E+00  1.70000000E+00  1.70000000E+00  1.70000000E+00
  1.70000000E+00  1.70000000E+00  1.30000000E+00  1.30000000E+00  1.70000000E+00
  1.30000000E+00  1.70000000E+00  1.70000000E+00  1.30000000E+00  1.30000000E+00
  1.30000000E+00  1.70000000E+00  1.70000000E+00  1.30000000E+00  1.70000000E+00
  1.70000000E+00  1.30000000E+00  1.70000000E+00  1.70000000E+00  1.30000000E+00
  1.70000000E+00  1.70000000E+00  1.30000000E+00  1.70000000E+00  1.30000000E+00
  1.30000000E+00  1.30000000E+00  1.70000000E+00  1.70000000E+00  1.70000000E+00
  1.70000000E+00  1.70000000E+00  1.30000000E+00  1.70000000E+00  1.70000000E+00
  1.70000000E+00  1.70000000E+00  1.70000000E+00  1.30000000E+00  1.30000000E+00
  1.70000000E+00  1.30000000E+00  1.70000000E+00  1.70000000E+00  1.30000000E+00
  1.30000000E+00  1.30000000E+00  1.70000000E+00  1.70000000E+00  1.30000000E+00
  1.70000000E+00  1.70000000E+00  1.30000000E+00  1.70000000E+00  1.70000000E+00
  1.30000000E+00  1.70000000E+00  1.70000000E+00  1.30000000E+00  1.70000000E+00
  1.30000000E+00  1.30000000E+00  1.30000000E+00  1.70000000E+00  1.70000000E+00
  1.70000000E+00  1.70000000E+00  1.70000000E+00  1.30000000E+00  1.70000000E+00
  1.70000000E+00  1.70000000E+00  1.70000000E+00  1.70000000E+00  1.30000000E+00
  1.30000000E+00  1.70000000E+00  1.30000000E+00  1.70000000E+00  1.70000000E+00
  1.30000000E+00  1.30000000E+00  1.30000000E+00  1.70000000E+00  1.70000000E+00
  1.30000000E+00  1.70000000E+00  1.70000000E+00  1.30000000E+00  1.70000000E+00
  1.70000000E+00  1.30000000E+00  1.70000000E+00  1.70000000E+00  1.30000000E+00
  1.70000000E+00  1.30000000E+00  1.30000000E+00  1.30000000E+00  1.70000000E+00
  1.70000000E+00  1.70000000E+00  1.70000000E+00  1.70000000E+00  1.30000000E+00
  1.70000000E+00  1.70000000E+00  1.70000000E+00  1.70000000E+00  1.70000000E+00
  1.30000000E+00  1.30000000E+00  1.70000000E+00  1.30000000E+00  1.70000000E+00
  1.70000000E+00  1.30000000E+00  1.30000000E+00  1.30000000E+00  1.70000000E+00
  1.70000000E+00  1.30000000E+00  1.70000000E+00  1.70000000E+00  1.30000000E+00
  1.70000000E+00  1.70000000E+00  1.30000000E+00  1.70000000E+00  1.70000000E+00
  1.30000000E+00  1.70000000E+00  1.30000000E+00  1.30000000E+00  1.30000000E+00
  1.70000000E+00  1.70000000E+00  1.70000000E+00  1.70000000E+00  1.70000000E+00
  1.30000000E+00  1.70000000E+00  1.70000000E+00  1.70000000E+00  1.70000000E+00
  1.70000000E+00  1.30000000E+00  1.30000000E+00  1.70000000E+00  1.30000000E+00
  1.70000000E+00  1.70000000E+00  1.30000000E+00  1.30000000E+00  1.30000000E+00
  1.70000000E+00  1.70000000E+00  1.30000000E+00  1.70000000E+00  1.70000000E+00
  1.30000000E+00  1.70000000E+00  1.70000000E+00  1.30000000E+00  1.70000000E+00
  1.70000000E+00  1.30000000E+00  1.70000000E+00  1.30000000E+00  1.30000000E+00
  1.30000000E+00  1.70000000E+00  1.70000000E+00  1.70000000E+00  1.70000000E+00
  1.70000000E+00  1.30000000E+00  1.70000000E+00  1.70000000E+00  1.70000000E+00
  1.70000000E+00  1.70000000E+00  1.30000000E+00  1.30000000E+00  1.70000000E+00
  1.30000000E+00  1.70000000E+00  1.70000000E+00  1.30000000E+00  1.30000000E+00
  1.30000000E+00  1.70000000E+00  1.70000000E+00  1.30000000E+00  1.70000000E+00
  1.70000000E+00  1.30000000E+00  1.70000000E+00  1.70000000E+00  1.30000000E+00
  1.70000000E+00  1.70000000E+00  1.30000000E+00  1.70000000E+00  1.30000000E+00
  1.30000000E+00  1.30000000E+00  1.70000000E+00  1.70000000E+00  1.70000000E+00
  1.70000000E+00  1.70000000E+00  1.30000000E+00  1.70000000E+00  1.70000000E+00
  1.70000000E+00  1.70000000E+00  1.70000000E+00  1.30000000E+00  1.30000000E+00
  1.70000000E+00  1.30000000E+00  1.70000000E+00  1.70000000E+00  1.30000000E+00
  1.30000000E+00  1.30000000E+00  1.70000000E+00  1.70000000E+00  1.30000000E+00
  1.70000000E+00  1.70000000E+00  1.30000000E+00  1.70000000E+00  1.70000000E+00
  1.30000000E+00  1.70000000E+00  1.70000000E+00  1.30000000E+00  1.70000000E+00
  1.30000000E+00  1.30000000E+00  1.30000000E+00  1.70000000E+00  1.70000000E+00
  1.70000000E+00  1.70000000E+00  1.70000000E+00  1.30000000E+00  1.70000000E+00
  1.70000000E+00  1.70000000E+00  1.70000000E+00  1.70000000E+00  1.30000000E+00
  1.30000000E+00  1.70000000E+00  1.30000000E+00  1.70000000E+00  1.70000000E+00
  1.30000000E+00  1.30000000E+00  1.30000000E+00  1.70000000E+00  1.70000000E+00
  1.30000000E+00  1.70000000E+00  1.70000000E+00  1.30000000E+00  1.70000000E+00
  1.70000000E+00  1.30000000E+00  1.70000000E+00  1.70000000E+00  1.30000000E+00
  1.70000000E+00  1.30000000E+00  1.30000000E+00  1.30000000E+00  1.70000000E+00
  1.70000000E+00  1.70000000E+00  1.70000000E+00  1.70000000E+00  1.30000000E+00
  1.70000000E+00  1.70000000E+00  1.70000000E+00  1.70000000E+00  1.70000000E+00
  1.30000000E+00  1.30000000E+00  1.70000000E+00  1.30000000E+00  1.70000000E+00
  1.70000000E+00  1.30000000E+00  1.30000000E+00  1.30000000E+00  1.70000000E+00
  1.70000000E+00  1.30000000E+00  1.70000000E+00  1.70000000E+00  1.30000000E+00
  1.70000000E+00  1.70000000E+00  1.30000000E+00  1.70000000E+00  1.70000000E+00
  1.30000000E+00  1.70000000E+00  1.30000000E+00  1.30000000E+00  1.30000000E+00
  1.70000000E+00  1.70000000E+00  1.70000000E+00  1.70000000E+00  1.70000000E+00
  1.30000000E+00  1.70000000E+00  1.70000000E+00  1.70000000E+00  1.70000000E+00
  1.70000000E+00  1.30000000E+00  1.30000000E+00  1.70000000E+00  1.30000000E+00
  1.70000000E+00  1.70000000E+00  1.30000000E+00  1.30000000E+00  1.30000000E+00
  1.70000000E+00  1.70000000E+00  1.30000000E+00  1.70000000E+00  1.70000000E+00
  1.30000000E+00  1.70000000E+00  1.70000000E+00  1.30000000E+00  1.70000000E+00
  1.70000000E+00  1.30000000E+00  1.70000000E+00  1.30000000E+00  1.30000000E+00
  1.30000000E+00  1.70000000E+00  1.70000000E+00  1.70000000E+00  1.70000000E+00
  1.70000000E+00  1.30000000E+00  1.70000000E+00  1.70000000E+00  1.70000000E+00
  1.70000000E+00  1.70000000E+00  1.30000000E+00  1.30000000E+00  1.70000000E+00
  1.30000000E+00  1.70000000E+00  1.70000000E+00  1.30000000E+00  1.30000000E+00
  1.30000000E+00  1.70000000E+00  1.70000000E+00  1.30000000E+00  1.70000000E+00
  1.70000000E+00  1.30000000E+00  1.70000000E+00  1.70000000E+00  1.30000000E+00
  1.70000000E+00  1.70000000E+00  1.30000000E+00  1.70000000E+00  1.30000000E+00
  1.30000000E+00  1.30000000E+00  1.70000000E+00  1.70000000E+00  1.70000000E+00
  1.70000000E+00  1.70000000E+00  1.30000000E+00  1.70000000E+00  1.70000000E+00
  1.70000000E+00  1.70000000E+00  1.70000000E+00  1.30000000E+00  1.30000000E+00
  1.70000000E+00  1.30000000E+00  1.70000000E+00  1.70000000E+00  1.30000000E+00
  1.30000000E+00  1.30000000E+00  1.70000000E+00  1.70000000E+00  1.30000000E+00
  1.70000000E+00  1.70000000E+00  1.30000000E+00  1.70000000E+00  1.70000000E+00
  1.30000000E+00  1.70000000E+00  1.70000000E+00  1.30000000E+00  1.70000000E+00
  1.30000000E+00  1.30000000E+00  1.30000000E+00  1.70000000E+00  1.70000000E+00
  1.70000000E+00  1.70000000E+00  1.70000000E+00  1.30000000E+00  1.70000000E+00
  1.70000000E+00  1.70000000E+00  1.70000000E+00  1.70000000E+00  1.30000000E+00
  1.30000000E+00  1.70000000E+00  1.30000000E+00  1.70000000E+00  1.70000000E+00
  1.30000000E+00  1.30000000E+00  1.30000000E+00  1.70000000E+00  1.70000000E+00
  1.30000000E+00  1.70000000E+00  1.70000000E+00  1.30000000E+00  1.70000000E+00
  1.70000000E+00  1.30000000E+00  1.70000000E+00  1.70000000E+00  1.30000000E+00
  1.70000000E+00  1.30000000E+00  1.30000000E+00  1.30000000E+00  1.70000000E+00
  1.70000000E+00  1.70000000E+00  1.70000000E+00  1.70000000E+00  1.30000000E+00
  1.70000000E+00  1.70000000E+00  1.70000000E+00  1.70000000E+00  1.70000000E+00
  1.30000000E+00  1.30000000E+00  1.70000000E+00  1.30000000E+00  1.70000000E+00
  1.70000000E+00  1.30000000E+00  1.30000000E+00  1.30000000E+00  1.70000000E+00
  1.70000000E+00  1.30000000E+00  1.70000000E+00  1.70000000E+00  1.30000000E+00
  1.70000000E+00  1.70000000E+00  1.30000000E+00  1.70000000E+00  1.70000000E+00
  1.30000000E+00  1.70000000E+00  1.30000000E+00  1.30000000E+00  1.30000000E+00
  1.70000000E+00  1.70000000E+00  1.70000000E+00  1.70000000E+00  1.70000000E+00
  1.30000000E+00  1.70000000E+00  1.70000000E+00  1.70000000E+00  1.70000000E+00
  1.70000000E+00  1.30000000E+00  1.30000000E+00  1.70000000E+00  1.30000000E+00
  1.70000000E+00  1.70000000E+00  1.30000000E+00  1.30000000E+00  1.30000000E+00
  1.70000000E+00  1.70000000E+00  1.30000000E+00  1.70000000E+00  1.70000000E+00
  1.30000000E+00  1.70000000E+00  1.70000000E+00  1.30000000E+00  1.70000000E+00
  1.70000000E+00  1.30000000E+00  1.70000000E+00  1.30000000E+00  1.30000000E+00
  1.30000000E+00  1.70000000E+00  1.70000000E+00  1.70000000E+00  1.70000000E+00
  1.70000000E+00  1.30000000E+00  1.70000000E+00  1.70000000E+00  1.70000000E+00
  1.70000000E+00  1.70000000E+00  1.30000000E+00  1.30000000E+00  1.70000000E+00
  1.30000000E+00  1.70000000E+00  1.70000000E+00  1.30000000E+00  1.30000000E+00
  1.30000000E+00  1.70000000E+00  1.70000000E+00  1.30000000E+00  1.70000000E+00
  1.70000000E+00  1.30000000E+00  1.70000000E+00  1.70000000E+00  1.30000000E+00
  1.70000000E+00  1.70000000E+00  1.30000000E+00  1.70000000E+00  1.30000000E+00
  1.30000000E+00  1.30000000E+00  1.70000000E+00  1.70000000E+00  1.70000000E+00
  1.70000000E+00  1.70000000E+00  1.30000000E+00  1.70000000E+00  1.70000000E+00
  1.70000000E+00  1.70000000E+00  1.70000000E+00  1.30000000E+00  1.30000000E+00
  1.70000000E+00  1.30000000E+00  1.70000000E+00  1.70000000E+00  1.30000000E+00
  1.30000000E+00  1.30000000E+00  1.70000000E+00  1.70000000E+00  1.30000000E+00
  1.70000000E+00  1.70000000E+00  1.30000000E+00  1.70000000E+00  1.70000000E+00
  1.30000000E+00  1.70000000E+00  1.70000000E+00  1.30000000E+00  1.70000000E+00
  1.30000000E+00  1.30000000E+00  1.30000000E+00  1.70000000E+00  1.70000000E+00
  1.70000000E+00  1.70000000E+00  1.70000000E+00  1.30000000E+00  1.70000000E+00
  1.70000000E+00  1.70000000E+00  1.70000000E+00  1.70000000E+00  1.30000000E+00
  1.30000000E+00  1.70000000E+00  1.30000000E+00  1.70000000E+00  1.70000000E+00
  1.30000000E+00  1.30000000E+00  1.30000000E+00  1.70000000E+00  1.70000000E+00
  1.30000000E+00  1.70000000E+00  1.70000000E+00  1.30000000E+00  1.70000000E+00
  1.70000000E+00  1.30000000E+00  1.70000000E+00  1.70000000E+00  1.30000000E+00
  1.70000000E+00  1.30000000E+00  1.30000000E+00  1.30000000E+00  1.70000000E+00
  1.70000000E+00  1.70000000E+00  1.70000000E+00  1.70000000E+00  1.30000000E+00
  1.70000000E+00  1.70000000E+00  1.70000000E+00  1.70000000E+00  1.70000000E+00
  1.30000000E+00  1.30000000E+00  1.70000000E+00  1.30000000E+00  1.70000000E+00
  1.70000000E+00  1.30000000E+00  1.30000000E+00  1.30000000E+00  1.70000000E+00
  1.70000000E+00  1.30000000E+00  1.70000000E+00  1.70000000E+00  1.30000000E+00
  1.70000000E+00  1.70000000E+00  1.30000000E+00  1.70000000E+00  1.70000000E+00
  1.30000000E+00  1.70000000E+00  1.30000000E+00  1.30000000E+00  1.30000000E+00
  1.70000000E+00  1.70000000E+00  1.70000000E+00  1.70000000E+00  1.70000000E+00
  1.30000000E+00  1.70000000E+00  1.70000000E+00  1.70000000E+00  1.70000000E+00
  1.70000000E+00  1.30000000E+00  1.30000000E+00  1.70000000E+00  1.30000000E+00
  1.70000000E+00  1.70000000E+00  1.30000000E+00  1.30000000E+00  1.30000000E+00
  1.70000000E+00  1.70000000E+00  1.30000000E+00  1.70000000E+00  1.70000000E+00
  1.30000000E+00  1.70000000E+00  1.70000000E+00  1.30000000E+00  1.70000000E+00
  1.70000000E+00  1.30000000E+00  1.70000000E+00  1.30000000E+00  1.30000000E+00
  1.30000000E+00  1.70000000E+00  1.70000000E+00  1.70000000E+00  1.70000000E+00
  1.70000000E+00  1.30000000E+00  1.70000000E+00  1.70000000E+00  1.70000000E+00
  1.70000000E+00  1.70000000E+00  1.30000000E+00  1.30000000E+00  1.70000000E+00
  1.30000000E+00  1.70000000E+00  1.70000000E+00  1.30000000E+00  1.30000000E+00
  1.30000000E+00  1.70000000E+00  1.70000000E+00  1.30000000E+00  1.70000000E+00
  1.70000000E+00  1.30000000E+00  1.70000000E+00  1.70000000E+00  1.30000000E+00
  1.70000000E+00  1.70000000E+00  1.30000000E+00  1.70000000E+00  1.30000000E+00
  1.30000000E+00  1.30000000E+00  1.70000000E+00  1.70000000E+00  1.70000000E+00
  1.70000000E+00  1.70000000E+00  1.30000000E+00  1.70000000E+00  1.70000000E+00
  1.70000000E+00  1.70000000E+00  1.70000000E+00  1.30000000E+00  1.30000000E+00
  1.70000000E+00  1.30000000E+00  1.70000000E+00  1.70000000E+00  1.30000000E+00
  1.30000000E+00  1.30000000E+00  1.70000000E+00  1.70000000E+00  1.30000000E+00
  1.70000000E+00  1.70000000E+00  1.30000000E+00  1.70000000E+00  1.70000000E+00
  1.30000000E+00  1.70000000E+00  1.70000000E+00  1.30000000E+00  1.70000000E+00
  1.30000000E+00  1.30000000E+00  1.30000000E+00  1.70000000E+00  1.70000000E+00
  1.70000000E+00  1.70000000E+00  1.70000000E+00  1.30000000E+00  1.70000000E+00
  1.70000000E+00  1.70000000E+00  1.70000000E+00  1.70000000E+00  1.30000000E+00
  1.30000000E+00  1.70000000E+00  1.30000000E+00  1.70000000E+00  1.70000000E+00
  1.30000000E+00  1.30000000E+00  1.30000000E+00  1.70000000E+00  1.70000000E+00
  1.30000000E+00  1.70000000E+00  1.70000000E+00  1.30000000E+00  1.70000000E+00
  1.70000000E+00  1.30000000E+00  1.70000000E+00  1.70000000E+00  1.30000000E+00
  1.70000000E+00  1.30000000E+00  1.30000000E+00  1.30000000E+00  1.70000000E+00
  1.70000000E+00  1.70000000E+00  1.70000000E+00  1.70000000E+00  1.30000000E+00
  1.70000000E+00  1.70000000E+00  1.70000000E+00  1.70000000E+00  1.70000000E+00
  1.30000000E+00  1.30000000E+00  1.70000000E+00  1.30000000E+00  1.70000000E+00
  1.70000000E+00  1.30000000E+00  1.30000000E+00  1.30000000E+00  1.70000000E+00
  1.70000000E+00  1.30000000E+00  1.70000000E+00  1.70000000E+00  1.30000000E+00
  1.70000000E+00  1.70000000E+00  1.30000000E+00  1.70000000E+00  1.70000000E+00
  1.30000000E+00  1.70000000E+00  1.30000000E+00  1.30000000E+00  1.30000000E+00
  1.70000000E+00  1.70000000E+00  1.70000000E+00  1.70000000E+00  1.70000000E+00
  1.30000000E+00  1.70000000E+00  1.70000000E+00  1.70000000E+00  1.70000000E+00
  1.70000000E+00  1.30000000E+00  1.30000000E+00  1.70000000E+00  1.30000000E+00
  1.70000000E+00  1.70000000E+00  1.30000000E+00  1.30000000E+00  1.30000000E+00
  1.70000000E+00  1.70000000E+00  1.30000000E+00  1.70000000E+00  1.70000000E+00
  1.30000000E+00  1.70000000E+00  1.70000000E+00  1.30000000E+00  1.70000000E+00
  1.70000000E+00  1.30000000E+00  1.70000000E+00  1.30000000E+00  1.30000000E+00
  1.30000000E+00  1.70000000E+00  1.70000000E+00  1.70000000E+00  1.70000000E+00
  1.70000000E+00  1.30000000E+00  1.70000000E+00  1.70000000E+00  1.70000000E+00
  1.70000000E+00  1.70000000E+00  1.30000000E+00  1.30000000E+00  1.70000000E+00
  1.30000000E+00  1.70000000E+00  1.70000000E+00  1.30000000E+00  1.30000000E+00
  1.30000000E+00  1.70000000E+00  1.70000000E+00  1.30000000E+00  1.70000000E+00
  1.70000000E+00  1.30000000E+00  1.70000000E+00  1.70000000E+00  1.30000000E+00
  1.70000000E+00  1.70000000E+00  1.30000000E+00  1.70000000E+00  1.30000000E+00
  1.30000000E+00  1.30000000E+00  1.70000000E+00  1.70000000E+00  1.70000000E+00
  1.70000000E+00  1.70000000E+00  1.30000000E+00  1.70000000E+00  1.70000000E+00
  1.70000000E+00  1.70000000E+00  1.70000000E+00  1.30000000E+00  1.30000000E+00
  1.70000000E+00  1.30000000E+00  1.70000000E+00  1.70000000E+00  1.30000000E+00
  1.30000000E+00  1.30000000E+00  1.70000000E+00  1.70000000E+00  1.30000000E+00
  1.70000000E+00  1.70000000E+00  1.30000000E+00  1.70000000E+00  1.70000000E+00
  1.30000000E+00  1.70000000E+00  1.70000000E+00  1.30000000E+00  1.70000000E+00
  1.30000000E+00  1.30000000E+00  1.30000000E+00  1.70000000E+00  1.70000000E+00
  1.70000000E+00  1.70000000E+00  1.70000000E+00  1.30000000E+00  1.70000000E+00
  1.70000000E+00  1.70000000E+00  1.70000000E+00  1.70000000E+00  1.30000000E+00
  1.30000000E+00  1.70000000E+00  1.30000000E+00  1.70000000E+00  1.70000000E+00
  1.30000000E+00  1.30000000E+00  1.30000000E+00  1.70000000E+00  1.70000000E+00
  1.30000000E+00  1.70000000E+00  1.70000000E+00  1.30000000E+00  1.70000000E+00
  1.70000000E+00  1.30000000E+00  1.70000000E+00  1.70000000E+00  1.30000000E+00
  1.70000000E+00  1.30000000E+00  1.30000000E+00  1.30000000E+00  1.70000000E+00
  1.70000000E+00  1.70000000E+00  1.70000000E+00  1.70000000E+00  1.30000000E+00
  1.70000000E+00  1.70000000E+00  1.70000000E+00  1.70000000E+00  1.70000000E+00
  1.30000000E+00  1.30000000E+00  1.70000000E+00  1.30000000E+00  1.70000000E+00
  1.70000000E+00  1.30000000E+00  1.30000000E+00  1.30000000E+00  1.70000000E+00
  1.70000000E+00  1.30000000E+00  1.70000000E+00  1.70000000E+00  1.30000000E+00
  1.70000000E+00  1.70000000E+00  1.30000000E+00  1.70000000E+00  1.70000000E+00
  1.30000000E+00  1.70000000E+00  1.30000000E+00  1.30000000E+00  1.30000000E+00
  1.70000000E+00  1.70000000E+00  1.70000000E+00  1.70000000E+00  1.70000000E+00
  1.30000000E+00  1.70000000E+00  1.70000000E+00  1.70000000E+00  1.70000000E+00
  1.70000000E+00  1.30000000E+00  1.30000000E+00  1.70000000E+00  1.30000000E+00
  1.70000000E+00  1.70000000E+00  1.30000000E+00  1.30000000E+00  1.30000000E+00
  1.70000000E+00  1.70000000E+00  1.30000000E+00  1.70000000E+00  1.70000000E+00
  1.30000000E+00  1.70000000E+00  1.70000000E+00  1.30000000E+00  1.70000000E+00
  1.70000000E+00  1.30000000E+00  1.70000000E+00  1.30000000E+00  1.30000000E+00
  1.30000000E+00  1.70000000E+00  1.70000000E+00  1.70000000E+00  1.70000000E+00
  1.70000000E+00  1.30000000E+00  1.70000000E+00  1.70000000E+00  1.70000000E+00
  1.70000000E+00  1.70000000E+00  1.30000000E+00  1.30000000E+00  1.70000000E+00
  1.30000000E+00  1.70000000E+00  1.70000000E+00  1.30000000E+00  1.30000000E+00
  1.30000000E+00  1.70000000E+00  1.70000000E+00  1.30000000E+00  1.70000000E+00
  1.70000000E+00  1.30000000E+00  1.70000000E+00  1.70000000E+00  1.30000000E+00
  1.70000000E+00  1.70000000E+00  1.30000000E+00  1.70000000E+00  1.30000000E+00
  1.30000000E+00  1.30000000E+00  1.70000000E+00  1.70000000E+00  1.70000000E+00
  1.70000000E+00  1.70000000E+00  1.30000000E+00  1.70000000E+00  1.70000000E+00
  1.70000000E+00  1.70000000E+00  1.70000000E+00  1.30000000E+00  1.30000000E+00
  1.70000000E+00  1.30000000E+00  1.70000000E+00  1.70000000E+00  1.30000000E+00
  1.30000000E+00  1.30000000E+00  1.70000000E+00  1.70000000E+00  1.30000000E+00
  1.70000000E+00  1.70000000E+00  1.30000000E+00  1.70000000E+00  1.70000000E+00
  1.30000000E+00  1.70000000E+00  1.70000000E+00  1.30000000E+00  1.70000000E+00
  1.30000000E+00  1.30000000E+00  1.30000000E+00  1.70000000E+00  1.70000000E+00
  1.70000000E+00  1.70000000E+00  1.70000000E+00  1.30000000E+00  1.70000000E+00
  1.70000000E+00  1.70000000E+00  1.70000000E+00  1.70000000E+00  1.30000000E+00
  1.30000000E+00  1.70000000E+00  1.30000000E+00  1.70000000E+00  1.70000000E+00
  1.30000000E+00  1.30000000E+00  1.30000000E+00  1.70000000E+00  1.70000000E+00
  1.30000000E+00  1.70000000E+00  1.70000000E+00  1.30000000E+00  1.70000000E+00
  1.70000000E+00  1.30000000E+00  1.70000000E+00  1.70000000E+00  1.30000000E+00
  1.70000000E+00  1.30000000E+00  1.30000000E+00  1.30000000E+00  1.70000000E+00
  1.70000000E+00  1.70000000E+00  1.70000000E+00  1.70000000E+00  1.30000000E+00
  1.70000000E+00  1.70000000E+00  1.70000000E+00  1.70000000E+00  1.70000000E+00
  1.30000000E+00  1.30000000E+00  1.70000000E+00  1.30000000E+00  1.70000000E+00
  1.70000000E+00  1.30000000E+00  1.30000000E+00  1.30000000E+00  1.70000000E+00
  1.70000000E+00  1.30000000E+00  1.70000000E+00  1.70000000E+00  1.30000000E+00
  1.70000000E+00  1.70000000E+00  1.30000000E+00  1.70000000E+00  1.70000000E+00
  1.30000000E+00  1.70000000E+00  1.30000000E+00  1.30000000E+00  1.30000000E+00
  1.70000000E+00  1.70000000E+00  1.70000000E+00  1.70000000E+00  1.70000000E+00
  1.30000000E+00  1.70000000E+00  1.70000000E+00  1.70000000E+00  1.70000000E+00
  1.70000000E+00  1.30000000E+00  1.30000000E+00  1.70000000E+00  1.30000000E+00
  1.70000000E+00  1.70000000E+00  1.30000000E+00  1.30000000E+00  1.30000000E+00
  1.70000000E+00  1.70000000E+00  1.30000000E+00  1.70000000E+00  1.70000000E+00
  1.30000000E+00  1.70000000E+00  1.70000000E+00  1.30000000E+00  1.70000000E+00
  1.70000000E+00  1.30000000E+00  1.70000000E+00  1.30000000E+00  1.30000000E+00
  1.30000000E+00  1.70000000E+00  1.70000000E+00  1.70000000E+00  1.70000000E+00
  1.70000000E+00  1.30000000E+00  1.70000000E+00  1.70000000E+00  1.70000000E+00
  1.70000000E+00  1.70000000E+00  1.30000000E+00  1.30000000E+00  1.70000000E+00
  1.30000000E+00  1.70000000E+00  1.70000000E+00  1.30000000E+00  1.30000000E+00
  1.30000000E+00  1.70000000E+00  1.70000000E+00  1.30000000E+00  1.70000000E+00
  1.70000000E+00  1.30000000E+00  1.70000000E+00  1.70000000E+00  1.30000000E+00
  1.70000000E+00  1.70000000E+00  1.30000000E+00  1.70000000E+00  1.30000000E+00
  1.30000000E+00  1.30000000E+00  1.70000000E+00  1.70000000E+00  1.70000000E+00
  1.70000000E+00  1.70000000E+00  1.30000000E+00  1.70000000E+00  1.70000000E+00
  1.70000000E+00  1.70000000E+00  1.70000000E+00  1.30000000E+00  1.30000000E+00
  1.70000000E+00  1.30000000E+00  1.70000000E+00  1.70000000E+00  1.30000000E+00
  1.30000000E+00  1.30000000E+00  1.70000000E+00  1.70000000E+00  1.30000000E+00
  1.70000000E+00  1.70000000E+00  1.30000000E+00  1.70000000E+00  1.70000000E+00
  1.30000000E+00  1.70000000E+00  1.70000000E+00  1.30000000E+00  1.70000000E+00
  1.30000000E+00  1.30000000E+00  1.30000000E+00  1.70000000E+00  1.70000000E+00
  1.70000000E+00  1.70000000E+00  1.70000000E+00  1.30000000E+00  1.70000000E+00
  1.70000000E+00  1.70000000E+00  1.70000000E+00  1.70000000E+00  1.30000000E+00
  1.30000000E+00  1.70000000E+00  1.30000000E+00  1.70000000E+00  1.70000000E+00
  1.30000000E+00  1.30000000E+00  1.30000000E+00  1.70000000E+00  1.70000000E+00
  1.30000000E+00  1.70000000E+00  1.70000000E+00  1.30000000E+00  1.70000000E+00
  1.70000000E+00  1.30000000E+00  1.70000000E+00  1.70000000E+00  1.30000000E+00
  1.70000000E+00  1.30000000E+00  1.30000000E+00  1.30000000E+00  1.70000000E+00
  1.70000000E+00  1.70000000E+00  1.70000000E+00  1.70000000E+00  1.30000000E+00
  1.70000000E+00  1.70000000E+00  1.70000000E+00  1.70000000E+00  1.70000000E+00
  1.30000000E+00  1.30000000E+00  1.70000000E+00  1.30000000E+00  1.70000000E+00
  1.70000000E+00  1.30000000E+00  1.30000000E+00  1.30000000E+00  1.70000000E+00
  1.70000000E+00  1.30000000E+00  1.70000000E+00  1.70000000E+00  1.30000000E+00
  1.70000000E+00  1.70000000E+00  1.30000000E+00  1.70000000E+00  1.70000000E+00
  1.30000000E+00  1.70000000E+00  1.30000000E+00  1.30000000E+00  1.30000000E+00
  1.70000000E+00  1.70000000E+00  1.70000000E+00  1.70000000E+00  1.70000000E+00
  1.30000000E+00  1.70000000E+00  1.70000000E+00  1.70000000E+00  1.70000000E+00
  1.70000000E+00  1.30000000E+00  1.30000000E+00  1.70000000E+00  1.30000000E+00
  1.70000000E+00  1.70000000E+00  1.30000000E+00  1.30000000E+00  1.30000000E+00
  1.70000000E+00  1.70000000E+00  1.30000000E+00  1.70000000E+00  1.70000000E+00
  1.30000000E+00  1.70000000E+00  1.70000000E+00  1.30000000E+00  1.70000000E+00
  1.70000000E+00  1.30000000E+00  1.70000000E+00  1.30000000E+00  1.30000000E+00
  1.30000000E+00  1.70000000E+00  1.70000000E+00  1.70000000E+00  1.70000000E+00
  1.70000000E+00  1.30000000E+00  1.70000000E+00  1.70000000E+00  1.70000000E+00
  1.70000000E+00  1.70000000E+00  1.30000000E+00  1.30000000E+00  1.70000000E+00
  1.30000000E+00  1.70000000E+00  1.70000000E+00  1.30000000E+00  1.30000000E+00
  1.30000000E+00  1.70000000E+00  1.70000000E+00  1.30000000E+00  1.70000000E+00
  1.70000000E+00  1.30000000E+00  1.70000000E+00  1.70000000E+00  1.30000000E+00
  1.70000000E+00  1.70000000E+00  1.30000000E+00  1.70000000E+00  1.30000000E+00
  1.30000000E+00  1.30000000E+00  1.70000000E+00  1.70000000E+00  1.70000000E+00
  1.70000000E+00  1.70000000E+00  1.30000000E+00  1.70000000E+00  1.70000000E+00
  1.70000000E+00  1.70000000E+00  1.70000000E+00  1.30000000E+00  1.30000000E+00
  1.70000000E+00  1.30000000E+00  1.70000000E+00  1.70000000E+00  1.30000000E+00
  1.30000000E+00  1.30000000E+00  1.70000000E+00  1.70000000E+00  1.30000000E+00
  1.70000000E+00  1.70000000E+00  1.30000000E+00  1.70000000E+00  1.70000000E+00
  1.30000000E+00  1.70000000E+00  1.70000000E+00  1.30000000E+00  1.70000000E+00
  1.30000000E+00  1.30000000E+00  1.30000000E+00  1.70000000E+00  1.70000000E+00
  1.70000000E+00  1.70000000E+00  1.70000000E+00  1.30000000E+00  1.70000000E+00
  1.70000000E+00  1.70000000E+00  1.70000000E+00  1.70000000E+00  1.30000000E+00
  1.30000000E+00  1.70000000E+00  1.30000000E+00  1.70000000E+00  1.70000000E+00
  1.30000000E+00  1.30000000E+00  1.30000000E+00  1.70000000E+00  1.70000000E+00
  1.30000000E+00  1.70000000E+00  1.70000000E+00  1.30000000E+00  1.70000000E+00
  1.70000000E+00  1.30000000E+00  1.70000000E+00  1.70000000E+00  1.30000000E+00
  1.70000000E+00  1.30000000E+00  1.30000000E+00  1.30000000E+00  1.70000000E+00
  1.70000000E+00  1.70000000E+00  1.70000000E+00  1.70000000E+00  1.30000000E+00
  1.70000000E+00  1.70000000E+00  1.70000000E+00  1.70000000E+00  1.70000000E+00
  1.30000000E+00  1.30000000E+00  1.70000000E+00  1.30000000E+00  1.70000000E+00
  1.70000000E+00  1.30000000E+00  1.30000000E+00  1.30000000E+00  1.70000000E+00
  1.70000000E+00  1.30000000E+00  1.70000000E+00  1.70000000E+00  1.30000000E+00
  1.70000000E+00  1.70000000E+00  1.30000000E+00  1.70000000E+00  1.70000000E+00
  1.30000000E+00  1.70000000E+00  1.30000000E+00  1.30000000E+00  1.30000000E+00
  1.70000000E+00  1.70000000E+00  1.70000000E+00  1.70000000E+00  1.70000000E+00
  1.30000000E+00  1.70000000E+00  1.70000000E+00  1.70000000E+00  1.70000000E+00
  1.70000000E+00  1.30000000E+00  1.30000000E+00  1.70000000E+00  1.30000000E+00
  1.70000000E+00  1.70000000E+00  1.30000000E+00  1.30000000E+00  1.30000000E+00
  1.70000000E+00  1.70000000E+00  1.30000000E+00  1.70000000E+00  1.70000000E+00
  1.30000000E+00  1.70000000E+00  1.70000000E+00  1.30000000E+00  1.70000000E+00
  1.70000000E+00  1.30000000E+00  1.70000000E+00  1.30000000E+00  1.30000000E+00
  1.30000000E+00  1.70000000E+00  1.70000000E+00  1.70000000E+00  1.70000000E+00
  1.70000000E+00  1.30000000E+00  1.70000000E+00  1.70000000E+00  1.70000000E+00
  1.70000000E+00  1.70000000E+00  1.30000000E+00  1.30000000E+00  1.70000000E+00
  1.30000000E+00  1.70000000E+00  1.70000000E+00  1.30000000E+00  1.30000000E+00
  1.30000000E+00  1.70000000E+00  1.70000000E+00  1.30000000E+00  1.70000000E+00
  1.70000000E+00  1.30000000E+00  1.70000000E+00  1.70000000E+00  1.30000000E+00
  1.70000000E+00  1.70000000E+00  1.30000000E+00  1.70000000E+00  1.30000000E+00
  1.30000000E+00  1.30000000E+00  1.70000000E+00  1.70000000E+00  1.70000000E+00
  1.70000000E+00  1.70000000E+00  1.30000000E+00  1.70000000E+00  1.70000000E+00
  1.70000000E+00  1.70000000E+00  1.70000000E+00  1.30000000E+00  1.30000000E+00
  1.70000000E+00  1.30000000E+00  1.70000000E+00  1.70000000E+00  1.30000000E+00
  1.30000000E+00  1.30000000E+00  1.70000000E+00  1.70000000E+00  1.30000000E+00
  1.70000000E+00  1.70000000E+00  1.30000000E+00  1.70000000E+00  1.70000000E+00
  1.30000000E+00  1.70000000E+00  1.70000000E+00  1.30000000E+00  1.70000000E+00
  1.30000000E+00  1.30000000E+00  1.30000000E+00  1.70000000E+00  1.70000000E+00
  1.70000000E+00  1.70000000E+00  1.70000000E+00  1.30000000E+00  1.70000000E+00
  1.70000000E+00  1.70000000E+00  1.70000000E+00  1.70000000E+00  1.30000000E+00
  1.30000000E+00  1.70000000E+00  1.30000000E+00  1.70000000E+00  1.70000000E+00
  1.30000000E+00  1.30000000E+00  1.30000000E+00  1.70000000E+00  1.70000000E+00
  1.30000000E+00  1.70000000E+00  1.70000000E+00  1.30000000E+00  1.70000000E+00
  1.70000000E+00  1.30000000E+00  1.70000000E+00  1.70000000E+00  1.30000000E+00
  1.70000000E+00  1.30000000E+00  1.30000000E+00  1.30000000E+00  1.70000000E+00
  1.70000000E+00  1.70000000E+00  1.70000000E+00  1.70000000E+00  1.30000000E+00
  1.70000000E+00  1.70000000E+00  1.70000000E+00  1.70000000E+00  1.70000000E+00
  1.30000000E+00  1.30000000E+00  1.70000000E+00  1.30000000E+00  1.70000000E+00
  1.70000000E+00  1.30000000E+00  1.30000000E+00  1.30000000E+00  1.70000000E+00
  1.70000000E+00  1.30000000E+00  1.70000000E+00  1.70000000E+00  1.30000000E+00
  1.70000000E+00  1.70000000E+00  1.30000000E+00  1.70000000E+00  1.70000000E+00
  1.30000000E+00  1.70000000E+00  1.30000000E+00  1.30000000E+00  1.30000000E+00
  1.70000000E+00  1.70000000E+00  1.70000000E+00  1.70000000E+00  1.70000000E+00
  1.30000000E+00  1.70000000E+00  1.70000000E+00  1.70000000E+00  1.70000000E+00
  1.70000000E+00  1.30000000E+00  1.30000000E+00  1.70000000E+00  1.30000000E+00
  1.70000000E+00  1.70000000E+00  1.30000000E+00  1.30000000E+00  1.30000000E+00
  1.70000000E+00  1.70000000E+00  1.30000000E+00  1.70000000E+00  1.70000000E+00
  1.30000000E+00  1.70000000E+00  1.70000000E+00  1.30000000E+00  1.70000000E+00
  1.70000000E+00  1.30000000E+00  1.70000000E+00  1.30000000E+00  1.30000000E+00
  1.30000000E+00  1.70000000E+00  1.70000000E+00  1.70000000E+00  1.70000000E+00
  1.70000000E+00  1.30000000E+00  1.70000000E+00  1.70000000E+00  1.70000000E+00
  1.70000000E+00  1.70000000E+00  1.30000000E+00  1.30000000E+00  1.70000000E+00
  1.30000000E+00  1.70000000E+00  1.70000000E+00  1.30000000E+00  1.30000000E+00
  1.30000000E+00  1.70000000E+00  1.70000000E+00  1.30000000E+00  1.70000000E+00
  1.70000000E+00  1.30000000E+00  1.70000000E+00  1.70000000E+00  1.30000000E+00
  1.70000000E+00  1.70000000E+00  1.30000000E+00  1.70000000E+00  1.30000000E+00
  1.30000000E+00  1.30000000E+00  1.70000000E+00  1.70000000E+00  1.70000000E+00
  1.70000000E+00  1.70000000E+00  1.30000000E+00  1.70000000E+00  1.70000000E+00
  1.70000000E+00  1.70000000E+00  1.70000000E+00  1.30000000E+00  1.30000000E+00
  1.70000000E+00  1.30000000E+00  1.70000000E+00  1.70000000E+00  1.30000000E+00
  1.30000000E+00  1.30000000E+00  1.70000000E+00  1.70000000E+00  1.30000000E+00
  1.70000000E+00  1.70000000E+00  1.30000000E+00  1.70000000E+00  1.70000000E+00
  1.30000000E+00  1.70000000E+00  1.70000000E+00  1.30000000E+00  1.70000000E+00
  1.30000000E+00  1.30000000E+00  1.30000000E+00  1.70000000E+00  1.70000000E+00
  1.70000000E+00  1.70000000E+00  1.70000000E+00  1.30000000E+00  1.70000000E+00
  1.70000000E+00  1.70000000E+00  1.70000000E+00  1.70000000E+00  1.30000000E+00
  1.30000000E+00  1.70000000E+00  1.30000000E+00  1.70000000E+00  1.70000000E+00
  1.30000000E+00  1.30000000E+00  1.30000000E+00  1.70000000E+00  1.70000000E+00
  1.30000000E+00  1.70000000E+00  1.70000000E+00  1.30000000E+00  1.70000000E+00
  1.70000000E+00  1.30000000E+00  1.70000000E+00  1.70000000E+00  1.30000000E+00
  1.70000000E+00  1.30000000E+00  1.30000000E+00  1.30000000E+00  1.70000000E+00
  1.70000000E+00  1.70000000E+00  1.70000000E+00  1.70000000E+00  1.30000000E+00
  1.70000000E+00  1.70000000E+00  1.70000000E+00  1.70000000E+00  1.70000000E+00
  1.30000000E+00  1.30000000E+00  1.70000000E+00  1.30000000E+00  1.70000000E+00
  1.70000000E+00  1.30000000E+00  1.30000000E+00  1.30000000E+00  1.70000000E+00
  1.70000000E+00  1.30000000E+00  1.70000000E+00  1.70000000E+00  1.30000000E+00
  1.70000000E+00  1.70000000E+00  1.30000000E+00  1.70000000E+00  1.70000000E+00
  1.30000000E+00  1.70000000E+00  1.30000000E+00  1.30000000E+00  1.30000000E+00
  1.70000000E+00  1.70000000E+00  1.70000000E+00  1.70000000E+00  1.70000000E+00
  1.30000000E+00  1.70000000E+00  1.70000000E+00  1.70000000E+00  1.70000000E+00
  1.70000000E+00  1.30000000E+00  1.30000000E+00  1.70000000E+00  1.30000000E+00
  1.70000000E+00  1.70000000E+00  1.30000000E+00  1.30000000E+00  1.30000000E+00
  1.70000000E+00  1.70000000E+00  1.30000000E+00  1.70000000E+00  1.70000000E+00
  1.30000000E+00  1.70000000E+00  1.70000000E+00  1.30000000E+00  1.70000000E+00
  1.70000000E+00  1.30000000E+00  1.70000000E+00  1.30000000E+00  1.30000000E+00
  1.30000000E+00  1.70000000E+00  1.70000000E+00  1.70000000E+00  1.70000000E+00
  1.70000000E+00  1.30000000E+00  1.70000000E+00  1.70000000E+00  1.70000000E+00
  1.70000000E+00  1.70000000E+00  1.30000000E+00  1.30000000E+00  1.70000000E+00
  1.30000000E+00  1.70000000E+00  1.70000000E+00  1.30000000E+00  1.30000000E+00
  1.30000000E+00  1.70000000E+00  1.70000000E+00  1.30000000E+00  1.70000000E+00
  1.70000000E+00  1.30000000E+00  1.70000000E+00  1.70000000E+00  1.30000000E+00
  1.70000000E+00  1.70000000E+00  1.30000000E+00  1.70000000E+00  1.30000000E+00
  1.30000000E+00  1.30000000E+00  1.70000000E+00  1.70000000E+00  1.70000000E+00
  1.70000000E+00  1.70000000E+00  1.30000000E+00  1.70000000E+00  1.70000000E+00
  1.70000000E+00  1.70000000E+00  1.70000000E+00  1.30000000E+00  1.30000000E+00
  1.70000000E+00  1.30000000E+00  1.70000000E+00  1.70000000E+00  1.30000000E+00
  1.30000000E+00  1.30000000E+00  1.70000000E+00  1.70000000E+00  1.30000000E+00
  1.70000000E+00  1.70000000E+00  1.30000000E+00  1.70000000E+00  1.70000000E+00
  1.30000000E+00  1.70000000E+00  1.70000000E+00  1.30000000E+00  1.70000000E+00
  1.30000000E+00  1.30000000E+00  1.30000000E+00  1.70000000E+00  1.70000000E+00
  1.70000000E+00  1.70000000E+00  1.70000000E+00  1.30000000E+00  1.70000000E+00
  1.70000000E+00  1.70000000E+00  1.70000000E+00  1.70000000E+00  1.30000000E+00
  1.30000000E+00  1.70000000E+00  1.30000000E+00  1.70000000E+00  1.70000000E+00
  1.30000000E+00  1.30000000E+00  1.30000000E+00  1.70000000E+00  1.70000000E+00
  1.30000000E+00  1.70000000E+00  1.70000000E+00  1.30000000E+00  1.70000000E+00
  1.70000000E+00  1.30000000E+00  1.70000000E+00  1.70000000E+00  1.30000000E+00
  1.70000000E+00  1.30000000E+00  1.30000000E+00  1.30000000E+00  1.70000000E+00
  1.70000000E+00  1.70000000E+00  1.70000000E+00  1.70000000E+00  1.30000000E+00
  1.70000000E+00  1.70000000E+00  1.70000000E+00  1.70000000E+00  1.70000000E+00
  1.30000000E+00  1.30000000E+00  1.70000000E+00  1.30000000E+00  1.70000000E+00
  1.70000000E+00  1.30000000E+00  1.30000000E+00  1.30000000E+00  1.70000000E+00
  1.70000000E+00  1.30000000E+00  1.70000000E+00  1.70000000E+00  1.30000000E+00
  1.70000000E+00  1.70000000E+00  1.30000000E+00  1.70000000E+00  1.70000000E+00
  1.30000000E+00  1.70000000E+00  1.30000000E+00  1.30000000E+00  1.30000000E+00
  1.70000000E+00  1.70000000E+00  1.70000000E+00  1.70000000E+00  1.70000000E+00
  1.30000000E+00  1.70000000E+00  1.70000000E+00  1.70000000E+00  1.70000000E+00
  1.70000000E+00  1.30000000E+00  1.30000000E+00  1.70000000E+00  1.30000000E+00
  1.70000000E+00  1.70000000E+00  1.30000000E+00  1.30000000E+00  1.30000000E+00
  1.70000000E+00  1.70000000E+00  1.30000000E+00  1.70000000E+00  1.70000000E+00
  1.30000000E+00  1.70000000E+00  1.70000000E+00  1.30000000E+00  1.70000000E+00
  1.70000000E+00  1.30000000E+00  1.70000000E+00  1.30000000E+00  1.30000000E+00
  1.30000000E+00  1.70000000E+00  1.70000000E+00  1.70000000E+00  1.70000000E+00
  1.70000000E+00  1.30000000E+00  1.70000000E+00  1.70000000E+00  1.70000000E+00
  1.70000000E+00  1.70000000E+00  1.30000000E+00  1.30000000E+00  1.70000000E+00
  1.30000000E+00  1.70000000E+00  1.70000000E+00  1.30000000E+00  1.30000000E+00
  1.30000000E+00  1.70000000E+00  1.70000000E+00  1.30000000E+00  1.70000000E+00
  1.70000000E+00  1.30000000E+00  1.70000000E+00  1.70000000E+00  1.30000000E+00
  1.70000000E+00  1.70000000E+00  1.30000000E+00  1.70000000E+00  1.30000000E+00
  1.30000000E+00  1.30000000E+00  1.70000000E+00  1.70000000E+00  1.70000000E+00
  1.70000000E+00  1.70000000E+00  1.30000000E+00  1.70000000E+00  1.70000000E+00
  1.70000000E+00  1.70000000E+00  1.70000000E+00  1.30000000E+00  1.30000000E+00
  1.70000000E+00  1.30000000E+00  1.70000000E+00  1.70000000E+00  1.30000000E+00
  1.30000000E+00  1.30000000E+00  1.70000000E+00  1.70000000E+00  1.30000000E+00
  1.70000000E+00  1.70000000E+00  1.30000000E+00  1.70000000E+00  1.70000000E+00
  1.30000000E+00  1.70000000E+00  1.70000000E+00  1.30000000E+00  1.70000000E+00
  1.30000000E+00  1.30000000E+00  1.30000000E+00  1.70000000E+00  1.70000000E+00
  1.70000000E+00  1.70000000E+00  1.70000000E+00  1.30000000E+00  1.70000000E+00
  1.70000000E+00  1.70000000E+00  1.70000000E+00  1.70000000E+00  1.30000000E+00
  1.30000000E+00  1.70000000E+00  1.30000000E+00  1.70000000E+00  1.70000000E+00
  1.30000000E+00  1.30000000E+00  1.30000000E+00  1.70000000E+00  1.70000000E+00
  1.30000000E+00  1.70000000E+00  1.70000000E+00  1.30000000E+00  1.70000000E+00
  1.70000000E+00  1.30000000E+00  1.70000000E+00  1.70000000E+00  1.30000000E+00
  1.70000000E+00  1.30000000E+00  1.30000000E+00  1.30000000E+00  1.70000000E+00
  1.70000000E+00  1.70000000E+00  1.70000000E+00  1.70000000E+00  1.30000000E+00
  1.70000000E+00  1.70000000E+00  1.70000000E+00  1.70000000E+00  1.70000000E+00
  1.30000000E+00  1.30000000E+00  1.70000000E+00  1.30000000E+00  1.70000000E+00
  1.70000000E+00  1.30000000E+00  1.30000000E+00  1.30000000E+00  1.70000000E+00
  1.70000000E+00  1.30000000E+00  1.70000000E+00  1.70000000E+00  1.30000000E+00
  1.70000000E+00  1.70000000E+00  1.30000000E+00  1.70000000E+00  1.70000000E+00
  1.30000000E+00  1.70000000E+00  1.30000000E+00  1.30000000E+00  1.30000000E+00
  1.70000000E+00  1.70000000E+00  1.70000000E+00  1.70000000E+00  1.70000000E+00
  1.30000000E+00  1.70000000E+00  1.70000000E+00  1.70000000E+00  1.70000000E+00
  1.70000000E+00  1.30000000E+00  1.30000000E+00  1.70000000E+00  1.30000000E+00
  1.70000000E+00  1.70000000E+00  1.30000000E+00  1.30000000E+00  1.30000000E+00
  1.70000000E+00  1.70000000E+00  1.30000000E+00  1.70000000E+00  1.70000000E+00
  1.30000000E+00  1.70000000E+00  1.70000000E+00  1.30000000E+00  1.70000000E+00
  1.70000000E+00  1.30000000E+00  1.70000000E+00  1.30000000E+00  1.30000000E+00
  1.30000000E+00  1.70000000E+00  1.70000000E+00  1.70000000E+00  1.70000000E+00
  1.70000000E+00  1.30000000E+00  1.70000000E+00  1.70000000E+00  1.70000000E+00
  1.70000000E+00  1.70000000E+00  1.30000000E+00  1.30000000E+00  1.70000000E+00
  1.30000000E+00  1.70000000E+00  1.70000000E+00  1.30000000E+00  1.30000000E+00
  1.30000000E+00  1.70000000E+00  1.70000000E+00  1.30000000E+00  1.70000000E+00
  1.70000000E+00  1.30000000E+00  1.70000000E+00  1.70000000E+00  1.30000000E+00
  1.70000000E+00  1.70000000E+00  1.30000000E+00  1.70000000E+00  1.30000000E+00
  1.30000000E+00  1.30000000E+00  1.70000000E+00  1.70000000E+00  1.70000000E+00
  1.70000000E+00  1.70000000E+00  1.30000000E+00  1.70000000E+00  1.70000000E+00
  1.70000000E+00  1.70000000E+00  1.70000000E+00  1.30000000E+00  1.30000000E+00
  1.70000000E+00  1.30000000E+00  1.70000000E+00  1.70000000E+00  1.30000000E+00
  1.30000000E+00  1.30000000E+00  1.70000000E+00  1.70000000E+00  1.30000000E+00
  1.70000000E+00  1.70000000E+00  1.30000000E+00  1.70000000E+00  1.70000000E+00
  1.30000000E+00  1.70000000E+00  1.70000000E+00  1.30000000E+00  1.70000000E+00
  1.30000000E+00  1.30000000E+00  1.30000000E+00  1.70000000E+00  1.70000000E+00
  1.70000000E+00  1.70000000E+00  1.70000000E+00  1.30000000E+00  1.70000000E+00
  1.70000000E+00  1.70000000E+00  1.70000000E+00  1.70000000E+00  1.30000000E+00
  1.30000000E+00  1.70000000E+00  1.30000000E+00  1.70000000E+00  1.70000000E+00
  1.30000000E+00  1.30000000E+00  1.30000000E+00  1.70000000E+00  1.70000000E+00
  1.30000000E+00  1.70000000E+00  1.70000000E+00  1.30000000E+00  1.70000000E+00
  1.70000000E+00  1.30000000E+00  1.70000000E+00  1.70000000E+00  1.30000000E+00
  1.70000000E+00  1.30000000E+00  1.30000000E+00  1.30000000E+00  1.70000000E+00
  1.70000000E+00  1.70000000E+00  1.70000000E+00  1.70000000E+00  1.30000000E+00
  1.70000000E+00  1.70000000E+00  1.70000000E+00  1.70000000E+00  1.70000000E+00
  1.30000000E+00  1.30000000E+00  1.70000000E+00  1.30000000E+00  1.70000000E+00
  1.70000000E+00  1.30000000E+00  1.30000000E+00  1.30000000E+00  1.70000000E+00
  1.70000000E+00  1.30000000E+00  1.70000000E+00  1.70000000E+00  1.30000000E+00
  1.70000000E+00  1.70000000E+00  1.30000000E+00  1.70000000E+00  1.70000000E+00
  1.30000000E+00  1.70000000E+00  1.30000000E+00  1.30000000E+00  1.30000000E+00
  1.70000000E+00  1.70000000E+00  1.70000000E+00  1.70000000E+00  1.70000000E+00
  1.30000000E+00  1.70000000E+00  1.70000000E+00  1.70000000E+00  1.70000000E+00
  1.70000000E+00  1.30000000E+00  1.30000000E+00  1.70000000E+00  1.30000000E+00
  1.70000000E+00  1.70000000E+00  1.30000000E+00  1.30000000E+00  1.30000000E+00
  1.70000000E+00  1.70000000E+00  1.30000000E+00  1.70000000E+00  1.70000000E+00
  1.30000000E+00  1.70000000E+00  1.70000000E+00  1.30000000E+00  1.70000000E+00
  1.70000000E+00  1.30000000E+00  1.70000000E+00  1.30000000E+00  1.30000000E+00
  1.30000000E+00  1.70000000E+00  1.70000000E+00  1.70000000E+00  1.70000000E+00
  1.70000000E+00  1.30000000E+00  1.70000000E+00  1.70000000E+00  1.70000000E+00
  1.70000000E+00  1.70000000E+00  1.30000000E+00  1.30000000E+00  1.70000000E+00
  1.30000000E+00  1.70000000E+00  1.70000000E+00  1.30000000E+00  1.30000000E+00
  1.30000000E+00  1.70000000E+00  1.70000000E+00  1.30000000E+00  1.70000000E+00
  1.70000000E+00  1.30000000E+00  1.70000000E+00  1.70000000E+00  1.30000000E+00
  1.70000000E+00  1.70000000E+00  1.30000000E+00  1.70000000E+00  1.30000000E+00
  1.30000000E+00  1.30000000E+00  1.70000000E+00  1.70000000E+00  1.70000000E+00
  1.70000000E+00  1.70000000E+00  1.30000000E+00  1.70000000E+00  1.70000000E+00
  1.70000000E+00  1.70000000E+00  1.70000000E+00  1.30000000E+00  1.30000000E+00
  1.70000000E+00  1.30000000E+00  1.70000000E+00  1.70000000E+00  1.30000000E+00
  1.30000000E+00  1.30000000E+00  1.70000000E+00  1.70000000E+00  1.30000000E+00
  1.70000000E+00  1.70000000E+00  1.30000000E+00  1.70000000E+00  1.70000000E+00
  1.30000000E+00  1.70000000E+00  1.70000000E+00  1.30000000E+00  1.70000000E+00
  1.30000000E+00  1.30000000E+00  1.30000000E+00  1.70000000E+00  1.70000000E+00
  1.70000000E+00  1.70000000E+00  1.70000000E+00  1.30000000E+00  1.70000000E+00
  1.70000000E+00  1.70000000E+00  1.70000000E+00  1.70000000E+00  1.30000000E+00
  1.30000000E+00  1.70000000E+00  1.30000000E+00  1.70000000E+00  1.70000000E+00
  1.30000000E+00  1.30000000E+00  1.30000000E+00  1.70000000E+00  1.70000000E+00
  1.30000000E+00  1.70000000E+00  1.70000000E+00  1.30000000E+00  1.70000000E+00
  1.70000000E+00  1.30000000E+00  1.70000000E+00  1.70000000E+00  1.30000000E+00
  1.70000000E+00  1.30000000E+00  1.30000000E+00  1.30000000E+00  1.70000000E+00
  1.70000000E+00  1.70000000E+00  1.70000000E+00  1.70000000E+00  1.30000000E+00
  1.70000000E+00  1.70000000E+00  1.70000000E+00  1.70000000E+00  1.70000000E+00
  1.30000000E+00  1.30000000E+00  1.70000000E+00  1.30000000E+00  1.70000000E+00
  1.70000000E+00  1.30000000E+00  1.30000000E+00  1.30000000E+00  1.70000000E+00
  1.70000000E+00  1.30000000E+00  1.70000000E+00  1.70000000E+00  1.30000000E+00
  1.70000000E+00  1.70000000E+00  1.30000000E+00  1.70000000E+00  1.70000000E+00
  1.30000000E+00  1.70000000E+00  1.30000000E+00  1.30000000E+00  1.30000000E+00
  1.70000000E+00  1.70000000E+00  1.70000000E+00  1.70000000E+00  1.70000000E+00
  1.30000000E+00  1.70000000E+00  1.70000000E+00  1.70000000E+00  1.70000000E+00
  1.70000000E+00  1.30000000E+00  1.30000000E+00  1.70000000E+00  1.30000000E+00
  1.70000000E+00  1.70000000E+00  1.30000000E+00  1.30000000E+00  1.30000000E+00
  1.70000000E+00  1.70000000E+00  1.30000000E+00  1.70000000E+00  1.70000000E+00
  1.30000000E+00  1.70000000E+00  1.70000000E+00  1.30000000E+00  1.70000000E+00
  1.70000000E+00  1.30000000E+00  1.70000000E+00  1.30000000E+00  1.30000000E+00
  1.30000000E+00  1.70000000E+00  1.70000000E+00  1.70000000E+00  1.70000000E+00
  1.70000000E+00  1.30000000E+00  1.70000000E+00  1.70000000E+00  1.70000000E+00
  1.70000000E+00  1.70000000E+00  1.30000000E+00  1.30000000E+00  1.70000000E+00
  1.30000000E+00  1.70000000E+00  1.70000000E+00  1.30000000E+00  1.30000000E+00
  1.30000000E+00  1.70000000E+00  1.70000000E+00  1.30000000E+00  1.70000000E+00
  1.70000000E+00  1.30000000E+00  1.70000000E+00  1.70000000E+00  1.30000000E+00
  1.70000000E+00  1.70000000E+00  1.30000000E+00  1.70000000E+00  1.30000000E+00
  1.30000000E+00  1.30000000E+00  1.70000000E+00  1.70000000E+00  1.70000000E+00
  1.70000000E+00  1.70000000E+00  1.30000000E+00  1.70000000E+00  1.70000000E+00
  1.70000000E+00  1.70000000E+00  1.70000000E+00  1.30000000E+00  1.30000000E+00
  1.70000000E+00  1.30000000E+00  1.70000000E+00  1.70000000E+00  1.30000000E+00
  1.30000000E+00  1.30000000E+00  1.70000000E+00  1.70000000E+00  1.30000000E+00
  1.70000000E+00  1.70000000E+00  1.30000000E+00  1.70000000E+00  1.70000000E+00
  1.30000000E+00  1.70000000E+00  1.70000000E+00  1.30000000E+00  1.70000000E+00
  1.30000000E+00  1.30000000E+00  1.30000000E+00  1.70000000E+00  1.70000000E+00
  1.70000000E+00  1.70000000E+00  1.70000000E+00  1.30000000E+00  1.70000000E+00
  1.70000000E+00  1.70000000E+00  1.70000000E+00  1.70000000E+00  1.30000000E+00
  1.30000000E+00  1.70000000E+00  1.30000000E+00  1.70000000E+00  1.70000000E+00
  1.30000000E+00  1.30000000E+00  1.30000000E+00  1.70000000E+00  1.70000000E+00
  1.30000000E+00  1.70000000E+00  1.70000000E+00  1.30000000E+00  1.70000000E+00
  1.70000000E+00  1.30000000E+00  1.70000000E+00  1.70000000E+00  1.30000000E+00
  1.70000000E+00  1.30000000E+00  1.30000000E+00  1.30000000E+00  1.70000000E+00
  1.70000000E+00  1.70000000E+00  1.70000000E+00  1.70000000E+00  1.30000000E+00
  1.70000000E+00  1.70000000E+00  1.70000000E+00  1.70000000E+00  1.70000000E+00
  1.30000000E+00  1.30000000E+00  1.70000000E+00  1.30000000E+00  1.70000000E+00
  1.70000000E+00  1.30000000E+00  1.30000000E+00  1.30000000E+00  1.70000000E+00
  1.70000000E+00  1.30000000E+00  1.70000000E+00  1.70000000E+00  1.30000000E+00
  1.70000000E+00  1.70000000E+00  1.30000000E+00  1.70000000E+00  1.70000000E+00
  1.30000000E+00  1.70000000E+00  1.30000000E+00  1.30000000E+00  1.30000000E+00
  1.70000000E+00  1.70000000E+00  1.70000000E+00  1.70000000E+00  1.70000000E+00
  1.30000000E+00  1.70000000E+00  1.70000000E+00  1.70000000E+00  1.70000000E+00
  1.70000000E+00  1.30000000E+00  1.30000000E+00  1.70000000E+00  1.30000000E+00
  1.70000000E+00  1.70000000E+00  1.30000000E+00  1.30000000E+00  1.30000000E+00
  1.70000000E+00  1.70000000E+00  1.30000000E+00  1.70000000E+00  1.70000000E+00
  1.30000000E+00  1.70000000E+00  1.70000000E+00  1.30000000E+00  1.70000000E+00
  1.70000000E+00  1.30000000E+00  1.70000000E+00  1.30000000E+00  1.30000000E+00
  1.30000000E+00  1.70000000E+00  1.70000000E+00  1.70000000E+00  1.70000000E+00
  1.70000000E+00  1.30000000E+00  1.70000000E+00  1.70000000E+00  1.70000000E+00
  1.70000000E+00  1.70000000E+00  1.30000000E+00  1.30000000E+00  1.70000000E+00
  1.30000000E+00  1.70000000E+00  1.70000000E+00  1.30000000E+00  1.30000000E+00
  1.30000000E+00  1.70000000E+00  1.70000000E+00  1.30000000E+00  1.70000000E+00
  1.70000000E+00  1.30000000E+00  1.70000000E+00  1.70000000E+00  1.30000000E+00
  1.70000000E+00  1.70000000E+00  1.30000000E+00  1.70000000E+00  1.30000000E+00
  1.30000000E+00  1.30000000E+00  1.70000000E+00  1.70000000E+00  1.70000000E+00
  1.70000000E+00  1.70000000E+00  1.30000000E+00  1.70000000E+00  1.70000000E+00
  1.70000000E+00  1.70000000E+00  1.70000000E+00  1.30000000E+00  1.30000000E+00
  1.70000000E+00  1.30000000E+00  1.70000000E+00  1.70000000E+00  1.30000000E+00
  1.30000000E+00  1.30000000E+00  1.70000000E+00  1.70000000E+00  1.30000000E+00
  1.70000000E+00  1.70000000E+00  1.30000000E+00  1.70000000E+00  1.70000000E+00
  1.30000000E+00  1.70000000E+00  1.70000000E+00  1.30000000E+00  1.70000000E+00
  1.30000000E+00  1.30000000E+00  1.30000000E+00  1.70000000E+00  1.70000000E+00
  1.70000000E+00  1.70000000E+00  1.70000000E+00  1.30000000E+00  1.70000000E+00
  1.70000000E+00  1.70000000E+00  1.70000000E+00  1.70000000E+00  1.30000000E+00
  1.30000000E+00  1.70000000E+00  1.30000000E+00  1.70000000E+00  1.70000000E+00
  1.30000000E+00  1.30000000E+00  1.30000000E+00  1.70000000E+00  1.70000000E+00
  1.30000000E+00  1.70000000E+00  1.70000000E+00  1.30000000E+00  1.70000000E+00
  1.70000000E+00  1.30000000E+00  1.70000000E+00  1.70000000E+00  1.30000000E+00
  1.70000000E+00  1.30000000E+00  1.30000000E+00  1.30000000E+00  1.70000000E+00
  1.70000000E+00  1.70000000E+00  1.70000000E+00  1.70000000E+00  1.30000000E+00
  1.70000000E+00  1.70000000E+00  1.70000000E+00  1.70000000E+00  1.70000000E+00
  1.30000000E+00  1.30000000E+00  1.70000000E+00  1.30000000E+00  1.70000000E+00
  1.70000000E+00  1.30000000E+00  1.30000000E+00  1.30000000E+00  1.70000000E+00
  1.70000000E+00  1.30000000E+00  1.70000000E+00  1.70000000E+00  1.30000000E+00
  1.70000000E+00  1.70000000E+00  1.30000000E+00  1.70000000E+00  1.70000000E+00
  1.30000000E+00  1.70000000E+00  1.30000000E+00  1.30000000E+00  1.30000000E+00
  1.70000000E+00  1.70000000E+00  1.70000000E+00  1.70000000E+00  1.70000000E+00
  1.30000000E+00  1.70000000E+00  1.70000000E+00  1.70000000E+00  1.70000000E+00
  1.70000000E+00  1.30000000E+00  1.30000000E+00  1.70000000E+00  1.30000000E+00
  1.70000000E+00  1.70000000E+00  1.30000000E+00  1.30000000E+00  1.30000000E+00
  1.70000000E+00  1.70000000E+00  1.30000000E+00  1.70000000E+00  1.70000000E+00
  1.30000000E+00  1.70000000E+00  1.70000000E+00  1.30000000E+00  1.70000000E+00
  1.70000000E+00  1.30000000E+00  1.70000000E+00  1.30000000E+00  1.30000000E+00
  1.30000000E+00  1.70000000E+00  1.70000000E+00  1.70000000E+00  1.70000000E+00
  1.70000000E+00  1.30000000E+00  1.70000000E+00  1.70000000E+00  1.70000000E+00
  1.70000000E+00  1.70000000E+00  1.30000000E+00  1.30000000E+00  1.70000000E+00
  1.30000000E+00  1.70000000E+00  1.70000000E+00  1.30000000E+00  1.30000000E+00
  1.30000000E+00  1.70000000E+00  1.70000000E+00  1.30000000E+00  1.70000000E+00
  1.70000000E+00  1.30000000E+00  1.70000000E+00  1.70000000E+00  1.30000000E+00
  1.70000000E+00  1.70000000E+00  1.30000000E+00  1.70000000E+00  1.30000000E+00
  1.30000000E+00  1.30000000E+00  1.70000000E+00  1.70000000E+00  1.70000000E+00
  1.70000000E+00  1.70000000E+00  1.30000000E+00  1.70000000E+00  1.70000000E+00
  1.70000000E+00  1.70000000E+00  1.70000000E+00  1.30000000E+00  1.30000000E+00
  1.70000000E+00  1.30000000E+00  1.70000000E+00  1.70000000E+00  1.30000000E+00
  1.30000000E+00  1.30000000E+00  1.70000000E+00  1.70000000E+00  1.30000000E+00
  1.70000000E+00  1.70000000E+00  1.30000000E+00  1.70000000E+00  1.70000000E+00
  1.30000000E+00  1.70000000E+00  1.70000000E+00  1.30000000E+00  1.70000000E+00
  1.30000000E+00  1.30000000E+00  1.30000000E+00  1.70000000E+00  1.70000000E+00
  1.70000000E+00  1.70000000E+00  1.70000000E+00  1.30000000E+00  1.70000000E+00
  1.70000000E+00  1.70000000E+00  1.70000000E+00  1.70000000E+00  1.30000000E+00
  1.30000000E+00  1.70000000E+00  1.30000000E+00  1.70000000E+00  1.70000000E+00
  1.30000000E+00  1.30000000E+00  1.30000000E+00  1.70000000E+00  1.70000000E+00
  1.30000000E+00  1.70000000E+00  1.70000000E+00  1.30000000E+00  1.70000000E+00
  1.70000000E+00  1.30000000E+00  1.70000000E+00  1.70000000E+00  1.30000000E+00
  1.70000000E+00  1.30000000E+00  1.30000000E+00  1.30000000E+00  1.70000000E+00
  1.70000000E+00  1.70000000E+00  1.70000000E+00  1.70000000E+00  1.30000000E+00
  1.70000000E+00  1.70000000E+00  1.70000000E+00  1.70000000E+00  1.70000000E+00
  1.30000000E+00  1.30000000E+00  1.70000000E+00  1.30000000E+00  1.70000000E+00
  1.70000000E+00  1.30000000E+00  1.30000000E+00  1.30000000E+00  1.70000000E+00
  1.70000000E+00  1.30000000E+00  1.70000000E+00  1.70000000E+00  1.30000000E+00
  1.70000000E+00  1.70000000E+00  1.30000000E+00  1.70000000E+00  1.70000000E+00
  1.30000000E+00  1.70000000E+00  1.30000000E+00  1.30000000E+00  1.30000000E+00
  1.70000000E+00  1.70000000E+00  1.70000000E+00  1.70000000E+00  1.70000000E+00
  1.30000000E+00  1.70000000E+00  1.70000000E+00  1.70000000E+00  1.70000000E+00
  1.70000000E+00  1.30000000E+00  1.30000000E+00  1.70000000E+00  1.30000000E+00
  1.70000000E+00  1.70000000E+00  1.30000000E+00  1.30000000E+00  1.30000000E+00
  1.70000000E+00  1.70000000E+00  1.30000000E+00  1.70000000E+00  1.70000000E+00
  1.30000000E+00  1.70000000E+00  1.70000000E+00  1.30000000E+00  1.70000000E+00
  1.70000000E+00  1.30000000E+00  1.70000000E+00  1.30000000E+00  1.30000000E+00
  1.30000000E+00  1.70000000E+00  1.70000000E+00  1.70000000E+00  1.70000000E+00
  1.70000000E+00  1.30000000E+00  1.70000000E+00  1.70000000E+00  1.70000000E+00
  1.70000000E+00  1.70000000E+00  1.30000000E+00  1.30000000E+00  1.70000000E+00
  1.30000000E+00  1.70000000E+00  1.70000000E+00  1.30000000E+00  1.30000000E+00
  1.30000000E+00  1.70000000E+00  1.70000000E+00  1.30000000E+00  1.70000000E+00
  1.70000000E+00  1.30000000E+00  1.70000000E+00  1.70000000E+00  1.30000000E+00
  1.70000000E+00  1.70000000E+00  1.30000000E+00  1.70000000E+00  1.30000000E+00
  1.30000000E+00  1.30000000E+00  1.70000000E+00  1.70000000E+00  1.70000000E+00
  1.70000000E+00  1.70000000E+00  1.30000000E+00  1.70000000E+00  1.70000000E+00
  1.70000000E+00  1.70000000E+00  1.70000000E+00  1.30000000E+00  1.30000000E+00
  1.70000000E+00  1.30000000E+00  1.70000000E+00  1.70000000E+00  1.30000000E+00
  1.30000000E+00  1.30000000E+00  1.70000000E+00  1.70000000E+00  1.30000000E+00
  1.70000000E+00  1.70000000E+00  1.30000000E+00  1.70000000E+00  1.70000000E+00
  1.30000000E+00  1.70000000E+00  1.70000000E+00  1.30000000E+00  1.70000000E+00
  1.30000000E+00  1.30000000E+00  1.30000000E+00  1.70000000E+00  1.70000000E+00
  1.70000000E+00  1.70000000E+00  1.70000000E+00  1.30000000E+00  1.70000000E+00
  1.70000000E+00  1.70000000E+00  1.70000000E+00  1.70000000E+00  1.30000000E+00
  1.30000000E+00  1.70000000E+00  1.30000000E+00  1.70000000E+00  1.70000000E+00
  1.30000000E+00  1.30000000E+00  1.30000000E+00  1.70000000E+00  1.70000000E+00
  1.30000000E+00  1.70000000E+00  1.70000000E+00  1.30000000E+00  1.70000000E+00
  1.70000000E+00  1.30000000E+00  1.70000000E+00  1.70000000E+00  1.30000000E+00
  1.70000000E+00  1.30000000E+00  1.30000000E+00  1.30000000E+00  1.70000000E+00
  1.70000000E+00  1.70000000E+00  1.70000000E+00  1.70000000E+00  1.30000000E+00
  1.70000000E+00  1.70000000E+00  1.70000000E+00  1.70000000E+00  1.70000000E+00
  1.30000000E+00  1.30000000E+00  1.70000000E+00  1.30000000E+00  1.70000000E+00
  1.70000000E+00  1.30000000E+00  1.30000000E+00  1.30000000E+00  1.70000000E+00
  1.70000000E+00  1.30000000E+00  1.70000000E+00  1.70000000E+00  1.30000000E+00
  1.70000000E+00  1.70000000E+00  1.30000000E+00  1.70000000E+00  1.70000000E+00
  1.30000000E+00  1.70000000E+00  1.30000000E+00  1.30000000E+00  1.30000000E+00
  1.70000000E+00  1.70000000E+00  1.70000000E+00  1.70000000E+00  1.70000000E+00
  1.30000000E+00  1.70000000E+00  1.70000000E+00  1.70000000E+00  1.70000000E+00
  1.70000000E+00  1.30000000E+00  1.30000000E+00  1.70000000E+00  1.30000000E+00
  1.70000000E+00  1.70000000E+00  1.30000000E+00  1.30000000E+00  1.30000000E+00
  1.70000000E+00  1.70000000E+00  1.30000000E+00  1.70000000E+00  1.70000000E+00
  1.30000000E+00  1.70000000E+00  1.70000000E+00  1.30000000E+00  1.70000000E+00
  1.70000000E+00  1.30000000E+00  1.70000000E+00  1.30000000E+00  1.30000000E+00
  1.30000000E+00  1.70000000E+00  1.70000000E+00  1.70000000E+00  1.70000000E+00
  1.70000000E+00  1.30000000E+00  1.70000000E+00  1.70000000E+00  1.70000000E+00
  1.70000000E+00  1.70000000E+00  1.30000000E+00  1.30000000E+00  1.70000000E+00
  1.30000000E+00  1.70000000E+00  1.70000000E+00  1.30000000E+00  1.30000000E+00
  1.30000000E+00  1.70000000E+00  1.70000000E+00  1.30000000E+00  1.70000000E+00
  1.70000000E+00  1.30000000E+00  1.70000000E+00  1.70000000E+00  1.30000000E+00
  1.70000000E+00  1.70000000E+00  1.30000000E+00  1.70000000E+00  1.30000000E+00
  1.30000000E+00  1.30000000E+00  1.70000000E+00  1.70000000E+00  1.70000000E+00
  1.70000000E+00  1.70000000E+00  1.30000000E+00  1.70000000E+00  1.70000000E+00
  1.70000000E+00  1.70000000E+00  1.70000000E+00  1.30000000E+00  1.30000000E+00
  1.70000000E+00  1.30000000E+00  1.70000000E+00  1.70000000E+00  1.30000000E+00
  1.30000000E+00  1.30000000E+00  1.70000000E+00  1.70000000E+00  1.30000000E+00
  1.70000000E+00  1.70000000E+00  1.30000000E+00  1.70000000E+00  1.70000000E+00
  1.30000000E+00  1.70000000E+00  1.70000000E+00  1.30000000E+00  1.70000000E+00
  1.30000000E+00  1.30000000E+00  1.30000000E+00  1.70000000E+00  1.70000000E+00
  1.70000000E+00  1.70000000E+00  1.70000000E+00  1.30000000E+00  1.70000000E+00
  1.70000000E+00  1.70000000E+00  1.70000000E+00  1.70000000E+00  1.30000000E+00
  1.30000000E+00  1.70000000E+00  1.30000000E+00  1.70000000E+00  1.70000000E+00
  1.30000000E+00  1.30000000E+00  1.30000000E+00  1.70000000E+00  1.70000000E+00
  1.30000000E+00  1.70000000E+00  1.70000000E+00  1.30000000E+00  1.70000000E+00
  1.70000000E+00  1.30000000E+00  1.70000000E+00  1.70000000E+00  1.30000000E+00
  1.70000000E+00  1.30000000E+00  1.30000000E+00  1.30000000E+00  1.70000000E+00
  1.70000000E+00  1.70000000E+00  1.70000000E+00  1.70000000E+00  1.30000000E+00
  1.70000000E+00  1.70000000E+00  1.70000000E+00  1.70000000E+00  1.70000000E+00
  1.30000000E+00  1.30000000E+00  1.70000000E+00  1.30000000E+00  1.70000000E+00
  1.70000000E+00  1.30000000E+00  1.30000000E+00  1.30000000E+00  1.70000000E+00
  1.70000000E+00  1.30000000E+00  1.70000000E+00  1.70000000E+00  1.30000000E+00
  1.70000000E+00  1.70000000E+00  1.30000000E+00  1.70000000E+00  1.70000000E+00
  1.30000000E+00  1.70000000E+00  1.30000000E+00  1.30000000E+00  1.30000000E+00
  1.70000000E+00  1.70000000E+00  1.70000000E+00  1.70000000E+00  1.70000000E+00
  1.30000000E+00  1.70000000E+00  1.70000000E+00  1.70000000E+00  1.70000000E+00
  1.70000000E+00  1.30000000E+00  1.30000000E+00  1.70000000E+00  1.30000000E+00
  1.70000000E+00  1.70000000E+00  1.30000000E+00  1.30000000E+00  1.30000000E+00
  1.70000000E+00  1.70000000E+00  1.30000000E+00  1.70000000E+00  1.70000000E+00
  1.30000000E+00  1.70000000E+00  1.70000000E+00  1.30000000E+00  1.70000000E+00
  1.70000000E+00  1.30000000E+00  1.70000000E+00  1.30000000E+00  1.30000000E+00
  1.30000000E+00  1.70000000E+00  1.70000000E+00  1.70000000E+00  1.70000000E+00
  1.70000000E+00  1.30000000E+00  1.70000000E+00  1.70000000E+00  1.70000000E+00
  1.70000000E+00  1.70000000E+00  1.30000000E+00  1.30000000E+00  1.70000000E+00
  1.30000000E+00  1.70000000E+00  1.70000000E+00  1.30000000E+00  1.30000000E+00
  1.30000000E+00  1.70000000E+00  1.70000000E+00  1.30000000E+00  1.70000000E+00
  1.70000000E+00  1.30000000E+00  1.70000000E+00  1.70000000E+00  1.30000000E+00
  1.70000000E+00  1.70000000E+00  1.30000000E+00  1.70000000E+00  1.30000000E+00
  1.30000000E+00  1.30000000E+00  1.70000000E+00  1.70000000E+00  1.70000000E+00
  1.70000000E+00  1.70000000E+00  1.30000000E+00  1.70000000E+00  1.70000000E+00
  1.70000000E+00  1.70000000E+00  1.70000000E+00  1.30000000E+00  1.30000000E+00
  1.70000000E+00  1.30000000E+00  1.70000000E+00  1.70000000E+00  1.30000000E+00
  1.30000000E+00  1.30000000E+00  1.70000000E+00  1.70000000E+00  1.30000000E+00
  1.70000000E+00  1.70000000E+00  1.30000000E+00  1.70000000E+00  1.70000000E+00
  1.30000000E+00  1.70000000E+00  1.70000000E+00  1.30000000E+00  1.70000000E+00
  1.30000000E+00  1.30000000E+00  1.30000000E+00  1.70000000E+00  1.70000000E+00
  1.70000000E+00  1.70000000E+00  1.70000000E+00  1.30000000E+00  1.70000000E+00
  1.70000000E+00  1.70000000E+00  1.70000000E+00  1.70000000E+00  1.30000000E+00
  1.30000000E+00  1.70000000E+00  1.30000000E+00  1.70000000E+00  1.70000000E+00
  1.30000000E+00  1.30000000E+00  1.30000000E+00  1.70000000E+00  1.70000000E+00
  1.30000000E+00  1.70000000E+00  1.70000000E+00  1.30000000E+00  1.70000000E+00
  1.70000000E+00  1.30000000E+00  1.70000000E+00  1.70000000E+00  1.30000000E+00
  1.70000000E+00  1.30000000E+00  1.30000000E+00  1.30000000E+00  1.70000000E+00
  1.70000000E+00  1.70000000E+00  1.70000000E+00  1.70000000E+00  1.30000000E+00
  1.70000000E+00  1.70000000E+00  1.70000000E+00  1.70000000E+00  1.70000000E+00
  1.30000000E+00  1.30000000E+00  1.70000000E+00  1.30000000E+00  1.70000000E+00
  1.70000000E+00  1.30000000E+00  1.30000000E+00  1.30000000E+00  1.70000000E+00
  1.70000000E+00  1.30000000E+00  1.70000000E+00  1.70000000E+00  1.30000000E+00
  1.70000000E+00  1.70000000E+00  1.30000000E+00  1.70000000E+00  1.70000000E+00
  1.30000000E+00  1.70000000E+00  1.30000000E+00  1.30000000E+00  1.30000000E+00
  1.70000000E+00  1.70000000E+00  1.70000000E+00  1.70000000E+00  1.70000000E+00
  1.30000000E+00  1.70000000E+00  1.70000000E+00  1.70000000E+00  1.70000000E+00
  1.70000000E+00  1.30000000E+00  1.30000000E+00  1.70000000E+00  1.30000000E+00
  1.70000000E+00  1.70000000E+00  1.30000000E+00  1.30000000E+00  1.30000000E+00
  1.70000000E+00  1.70000000E+00  1.30000000E+00  1.70000000E+00  1.70000000E+00
  1.30000000E+00  1.70000000E+00  1.70000000E+00  1.30000000E+00  1.70000000E+00
  1.70000000E+00  1.30000000E+00  1.70000000E+00  1.30000000E+00  1.30000000E+00
  1.30000000E+00  1.70000000E+00  1.70000000E+00  1.70000000E+00  1.70000000E+00
  1.70000000E+00  1.30000000E+00  1.70000000E+00  1.70000000E+00  1.70000000E+00
  1.70000000E+00  1.70000000E+00  1.30000000E+00  1.30000000E+00  1.70000000E+00
  1.30000000E+00  1.70000000E+00  1.70000000E+00  1.30000000E+00  1.30000000E+00
  1.30000000E+00  1.70000000E+00  1.70000000E+00  1.30000000E+00  1.70000000E+00
  1.70000000E+00  1.30000000E+00  1.70000000E+00  1.70000000E+00  1.30000000E+00
  1.70000000E+00  1.70000000E+00  1.30000000E+00  1.70000000E+00  1.30000000E+00
  1.30000000E+00  1.30000000E+00  1.70000000E+00  1.70000000E+00  1.70000000E+00
  1.70000000E+00  1.70000000E+00  1.30000000E+00  1.70000000E+00  1.70000000E+00
  1.70000000E+00  1.70000000E+00  1.70000000E+00  1.30000000E+00  1.30000000E+00
  1.70000000E+00  1.30000000E+00  1.70000000E+00  1.70000000E+00  1.30000000E+00
  1.30000000E+00  1.30000000E+00  1.70000000E+00  1.70000000E+00  1.30000000E+00
  1.70000000E+00  1.70000000E+00  1.30000000E+00  1.70000000E+00  1.70000000E+00
  1.30000000E+00  1.70000000E+00  1.70000000E+00  1.30000000E+00  1.70000000E+00
  1.30000000E+00  1.30000000E+00  1.30000000E+00  1.70000000E+00  1.70000000E+00
  1.70000000E+00  1.70000000E+00  1.70000000E+00  1.30000000E+00  1.70000000E+00
  1.70000000E+00  1.70000000E+00  1.70000000E+00  1.70000000E+00  1.30000000E+00
  1.30000000E+00  1.70000000E+00  1.30000000E+00  1.70000000E+00  1.70000000E+00
  1.30000000E+00  1.30000000E+00  1.30000000E+00  1.70000000E+00  1.70000000E+00
  1.30000000E+00  1.70000000E+00  1.70000000E+00  1.30000000E+00  1.70000000E+00
  1.70000000E+00  1.30000000E+00  1.70000000E+00  1.70000000E+00  1.30000000E+00
  1.70000000E+00  1.30000000E+00  1.30000000E+00  1.30000000E+00  1.70000000E+00
  1.70000000E+00  1.70000000E+00  1.70000000E+00  1.70000000E+00  1.30000000E+00
  1.70000000E+00  1.70000000E+00  1.70000000E+00  1.70000000E+00  1.70000000E+00
  1.30000000E+00  1.30000000E+00  1.70000000E+00  1.30000000E+00  1.70000000E+00
  1.70000000E+00  1.30000000E+00  1.30000000E+00  1.30000000E+00  1.70000000E+00
  1.70000000E+00  1.30000000E+00  1.70000000E+00  1.70000000E+00  1.30000000E+00
  1.70000000E+00  1.70000000E+00  1.30000000E+00  1.70000000E+00  1.70000000E+00
  1.30000000E+00  1.70000000E+00  1.30000000E+00  1.30000000E+00  1.30000000E+00
  1.70000000E+00  1.70000000E+00  1.70000000E+00  1.70000000E+00  1.70000000E+00
  1.30000000E+00  1.70000000E+00  1.70000000E+00  1.70000000E+00  1.70000000E+00
  1.70000000E+00  1.30000000E+00  1.30000000E+00  1.70000000E+00  1.30000000E+00
  1.70000000E+00  1.70000000E+00  1.30000000E+00  1.30000000E+00  1.30000000E+00
  1.70000000E+00  1.70000000E+00  1.30000000E+00  1.70000000E+00  1.70000000E+00
  1.30000000E+00  1.70000000E+00  1.70000000E+00  1.30000000E+00  1.70000000E+00
  1.70000000E+00  1.30000000E+00  1.70000000E+00  1.30000000E+00  1.30000000E+00
  1.30000000E+00  1.70000000E+00  1.70000000E+00  1.70000000E+00  1.70000000E+00
  1.70000000E+00  1.30000000E+00  1.70000000E+00  1.70000000E+00  1.70000000E+00
  1.70000000E+00  1.70000000E+00  1.30000000E+00  1.30000000E+00  1.70000000E+00
  1.30000000E+00  1.70000000E+00  1.70000000E+00  1.30000000E+00  1.30000000E+00
  1.30000000E+00  1.70000000E+00  1.70000000E+00  1.30000000E+00  1.70000000E+00
  1.70000000E+00  1.30000000E+00  1.70000000E+00  1.70000000E+00  1.30000000E+00
  1.70000000E+00  1.70000000E+00  1.30000000E+00  1.70000000E+00  1.30000000E+00
  1.30000000E+00  1.30000000E+00  1.70000000E+00  1.70000000E+00  1.70000000E+00
  1.70000000E+00  1.70000000E+00  1.30000000E+00  1.70000000E+00  1.70000000E+00
  1.70000000E+00  1.70000000E+00  1.70000000E+00  1.30000000E+00  1.30000000E+00
  1.70000000E+00  1.30000000E+00  1.70000000E+00  1.70000000E+00  1.30000000E+00
  1.30000000E+00  1.30000000E+00  1.70000000E+00  1.70000000E+00  1.30000000E+00
  1.70000000E+00  1.70000000E+00  1.30000000E+00  1.70000000E+00  1.70000000E+00
  1.30000000E+00  1.70000000E+00  1.70000000E+00  1.30000000E+00  1.70000000E+00
  1.30000000E+00  1.30000000E+00  1.30000000E+00  1.70000000E+00  1.70000000E+00
  1.70000000E+00  1.70000000E+00  1.70000000E+00  1.30000000E+00  1.70000000E+00
  1.70000000E+00  1.70000000E+00  1.70000000E+00  1.70000000E+00  1.30000000E+00
  1.30000000E+00  1.70000000E+00  1.30000000E+00  1.70000000E+00  1.70000000E+00
  1.30000000E+00  1.30000000E+00  1.30000000E+00  1.70000000E+00  1.70000000E+00
  1.30000000E+00  1.70000000E+00  1.70000000E+00  1.30000000E+00  1.70000000E+00
  1.70000000E+00  1.30000000E+00  1.70000000E+00  1.70000000E+00  1.30000000E+00
  1.70000000E+00  1.30000000E+00  1.30000000E+00  1.30000000E+00  1.70000000E+00
  1.70000000E+00  1.70000000E+00  1.70000000E+00  1.70000000E+00  1.30000000E+00
  1.70000000E+00  1.70000000E+00  1.70000000E+00  1.70000000E+00  1.70000000E+00
  1.30000000E+00  1.30000000E+00  1.70000000E+00  1.30000000E+00  1.70000000E+00
  1.70000000E+00  1.30000000E+00  1.30000000E+00  1.30000000E+00  1.70000000E+00
  1.70000000E+00  1.30000000E+00  1.70000000E+00  1.70000000E+00  1.30000000E+00
  1.70000000E+00  1.70000000E+00  1.30000000E+00  1.70000000E+00  1.70000000E+00
  1.30000000E+00  1.70000000E+00  1.30000000E+00  1.30000000E+00  1.30000000E+00
  1.70000000E+00  1.70000000E+00  1.70000000E+00  1.70000000E+00  1.70000000E+00
  1.30000000E+00  1.70000000E+00  1.70000000E+00  1.70000000E+00  1.70000000E+00
  1.70000000E+00  1.30000000E+00  1.30000000E+00  1.70000000E+00  1.30000000E+00
  1.70000000E+00  1.70000000E+00  1.30000000E+00  1.30000000E+00  1.30000000E+00
  1.70000000E+00  1.70000000E+00  1.30000000E+00  1.70000000E+00  1.70000000E+00
  1.30000000E+00  1.70000000E+00  1.70000000E+00  1.30000000E+00  1.70000000E+00
  1.70000000E+00  1.30000000E+00  1.70000000E+00  1.30000000E+00  1.30000000E+00
  1.30000000E+00  1.70000000E+00  1.70000000E+00  1.70000000E+00  1.70000000E+00
  1.70000000E+00  1.30000000E+00  1.70000000E+00  1.70000000E+00  1.70000000E+00
  1.70000000E+00  1.70000000E+00  1.30000000E+00  1.30000000E+00  1.70000000E+00
  1.30000000E+00  1.70000000E+00  1.70000000E+00  1.30000000E+00  1.30000000E+00
  1.30000000E+00  1.70000000E+00  1.70000000E+00  1.30000000E+00  1.70000000E+00
  1.70000000E+00  1.30000000E+00  1.70000000E+00  1.70000000E+00  1.30000000E+00
  1.70000000E+00  1.70000000E+00  1.30000000E+00  1.70000000E+00  1.30000000E+00
  1.30000000E+00  1.30000000E+00  1.70000000E+00  1.70000000E+00  1.70000000E+00
  1.70000000E+00  1.70000000E+00  1.30000000E+00  1.70000000E+00  1.70000000E+00
  1.70000000E+00  1.70000000E+00  1.70000000E+00  1.30000000E+00  1.30000000E+00
  1.70000000E+00  1.30000000E+00  1.70000000E+00  1.70000000E+00  1.30000000E+00
  1.30000000E+00  1.30000000E+00  1.70000000E+00  1.70000000E+00  1.30000000E+00
  1.70000000E+00  1.70000000E+00  1.30000000E+00  1.70000000E+00  1.70000000E+00
  1.30000000E+00  1.70000000E+00  1.70000000E+00  1.30000000E+00  1.70000000E+00
  1.30000000E+00  1.30000000E+00  1.30000000E+00  1.70000000E+00  1.70000000E+00
  1.70000000E+00  1.70000000E+00  1.70000000E+00  1.30000000E+00  1.70000000E+00
  1.70000000E+00  1.70000000E+00  1.70000000E+00  1.70000000E+00  1.30000000E+00
  1.30000000E+00  1.70000000E+00  1.30000000E+00  1.70000000E+00  1.70000000E+00
  1.30000000E+00  1.30000000E+00  1.30000000E+00  1.70000000E+00  1.70000000E+00
  1.30000000E+00  1.70000000E+00  1.70000000E+00  1.30000000E+00  1.70000000E+00
  1.70000000E+00  1.30000000E+00  1.70000000E+00  1.70000000E+00  1.30000000E+00
  1.70000000E+00  1.30000000E+00  1.30000000E+00  1.30000000E+00  1.70000000E+00
  1.70000000E+00  1.70000000E+00  1.70000000E+00  1.70000000E+00  1.30000000E+00
  1.70000000E+00  1.70000000E+00  1.70000000E+00  1.70000000E+00  1.70000000E+00
  1.30000000E+00  1.30000000E+00  1.70000000E+00  1.30000000E+00  1.70000000E+00
  1.70000000E+00  1.30000000E+00  1.30000000E+00  1.30000000E+00  1.70000000E+00
  1.70000000E+00  1.30000000E+00  1.70000000E+00  1.70000000E+00  1.30000000E+00
  1.70000000E+00  1.70000000E+00  1.30000000E+00  1.70000000E+00  1.70000000E+00
  1.30000000E+00  1.70000000E+00  1.30000000E+00  1.30000000E+00  1.30000000E+00
  1.70000000E+00  1.70000000E+00  1.70000000E+00  1.70000000E+00  1.70000000E+00
  1.30000000E+00  1.70000000E+00  1.70000000E+00  1.70000000E+00  1.70000000E+00
  1.70000000E+00  1.30000000E+00  1.30000000E+00  1.70000000E+00  1.30000000E+00
  1.70000000E+00  1.70000000E+00  1.30000000E+00  1.30000000E+00  1.30000000E+00
  1.70000000E+00  1.70000000E+00  1.30000000E+00  1.70000000E+00  1.70000000E+00
  1.30000000E+00  1.70000000E+00  1.70000000E+00  1.30000000E+00  1.70000000E+00
  1.70000000E+00  1.30000000E+00  1.70000000E+00  1.30000000E+00  1.30000000E+00
  1.30000000E+00  1.70000000E+00  1.70000000E+00  1.70000000E+00  1.70000000E+00
  1.70000000E+00  1.30000000E+00  1.70000000E+00  1.70000000E+00  1.70000000E+00
  1.70000000E+00  1.70000000E+00  1.30000000E+00  1.30000000E+00  1.70000000E+00
  1.30000000E+00  1.70000000E+00  1.70000000E+00  1.30000000E+00  1.30000000E+00
  1.30000000E+00  1.70000000E+00  1.70000000E+00  1.30000000E+00  1.70000000E+00
  1.70000000E+00  1.30000000E+00  1.70000000E+00  1.70000000E+00  1.30000000E+00
  1.70000000E+00  1.70000000E+00  1.30000000E+00  1.70000000E+00  1.30000000E+00
  1.30000000E+00  1.30000000E+00  1.70000000E+00  1.70000000E+00  1.70000000E+00
  1.70000000E+00  1.70000000E+00  1.30000000E+00  1.70000000E+00  1.70000000E+00
  1.70000000E+00  1.70000000E+00  1.70000000E+00  1.30000000E+00  1.30000000E+00
  1.70000000E+00  1.30000000E+00  1.70000000E+00  1.70000000E+00  1.30000000E+00
  1.30000000E+00  1.30000000E+00  1.70000000E+00  1.70000000E+00  1.30000000E+00
  1.70000000E+00  1.70000000E+00  1.30000000E+00  1.70000000E+00  1.70000000E+00
  1.30000000E+00  1.70000000E+00  1.70000000E+00  1.30000000E+00  1.70000000E+00
  1.30000000E+00  1.30000000E+00  1.30000000E+00  1.70000000E+00  1.70000000E+00
  1.70000000E+00  1.70000000E+00  1.70000000E+00  1.30000000E+00  1.70000000E+00
  1.70000000E+00  1.70000000E+00  1.70000000E+00  1.70000000E+00  1.30000000E+00
  1.30000000E+00  1.70000000E+00  1.30000000E+00  1.70000000E+00  1.70000000E+00
  1.30000000E+00  1.30000000E+00  1.30000000E+00  1.70000000E+00  1.70000000E+00
  1.30000000E+00  1.70000000E+00  1.70000000E+00  1.30000000E+00  1.70000000E+00
  1.70000000E+00  1.30000000E+00  1.70000000E+00  1.70000000E+00  1.30000000E+00
  1.70000000E+00  1.30000000E+00  1.30000000E+00  1.30000000E+00  1.70000000E+00
  1.70000000E+00  1.70000000E+00  1.70000000E+00  1.70000000E+00  1.30000000E+00
  1.70000000E+00  1.70000000E+00  1.70000000E+00  1.70000000E+00  1.70000000E+00
  1.30000000E+00  1.30000000E+00  1.70000000E+00  1.30000000E+00  1.70000000E+00
  1.70000000E+00  1.30000000E+00  1.30000000E+00  1.30000000E+00  1.70000000E+00
  1.70000000E+00  1.30000000E+00  1.70000000E+00  1.70000000E+00  1.30000000E+00
  1.70000000E+00  1.70000000E+00  1.30000000E+00  1.70000000E+00  1.70000000E+00
  1.30000000E+00  1.70000000E+00  1.30000000E+00  1.30000000E+00  1.30000000E+00
  1.70000000E+00  1.70000000E+00  1.70000000E+00  1.70000000E+00  1.70000000E+00
  1.30000000E+00  1.70000000E+00  1.70000000E+00  1.70000000E+00  1.70000000E+00
  1.70000000E+00  1.30000000E+00  1.30000000E+00  1.70000000E+00  1.30000000E+00
  1.70000000E+00  1.70000000E+00  1.30000000E+00  1.30000000E+00  1.30000000E+00
  1.70000000E+00  1.70000000E+00  1.30000000E+00  1.70000000E+00  1.70000000E+00
  1.30000000E+00  1.70000000E+00  1.70000000E+00  1.30000000E+00  1.70000000E+00
  1.70000000E+00  1.30000000E+00  1.70000000E+00  1.30000000E+00  1.30000000E+00
  1.30000000E+00  1.70000000E+00  1.70000000E+00  1.70000000E+00  1.70000000E+00
  1.70000000E+00  1.30000000E+00  1.70000000E+00  1.70000000E+00  1.70000000E+00
  1.70000000E+00  1.70000000E+00  1.30000000E+00  1.30000000E+00  1.70000000E+00
  1.30000000E+00  1.70000000E+00  1.70000000E+00  1.30000000E+00  1.30000000E+00
  1.30000000E+00  1.70000000E+00  1.70000000E+00  1.30000000E+00  1.70000000E+00
  1.70000000E+00  1.30000000E+00  1.70000000E+00  1.70000000E+00  1.30000000E+00
  1.70000000E+00  1.70000000E+00  1.30000000E+00  1.70000000E+00  1.30000000E+00
  1.30000000E+00  1.30000000E+00  1.70000000E+00  1.70000000E+00  1.70000000E+00
  1.70000000E+00  1.70000000E+00  1.30000000E+00  1.70000000E+00  1.70000000E+00
  1.70000000E+00  1.70000000E+00  1.70000000E+00  1.30000000E+00  1.30000000E+00
  1.70000000E+00  1.30000000E+00  1.70000000E+00  1.70000000E+00  1.30000000E+00
  1.30000000E+00  1.30000000E+00  1.70000000E+00  1.70000000E+00  1.30000000E+00
  1.70000000E+00  1.70000000E+00  1.30000000E+00  1.70000000E+00  1.70000000E+00
  1.30000000E+00  1.70000000E+00  1.70000000E+00  1.30000000E+00  1.70000000E+00
  1.30000000E+00  1.30000000E+00  1.30000000E+00  1.70000000E+00  1.70000000E+00
  1.70000000E+00  1.70000000E+00  1.70000000E+00  1.30000000E+00  1.70000000E+00
  1.70000000E+00  1.70000000E+00  1.70000000E+00  1.70000000E+00  1.30000000E+00
  1.30000000E+00  1.70000000E+00  1.30000000E+00  1.70000000E+00  1.70000000E+00
  1.30000000E+00  1.30000000E+00  1.30000000E+00  1.70000000E+00  1.70000000E+00
  1.30000000E+00  1.70000000E+00  1.70000000E+00  1.30000000E+00  1.70000000E+00
  1.70000000E+00  1.30000000E+00  1.70000000E+00  1.70000000E+00  1.30000000E+00
  1.70000000E+00  1.30000000E+00  1.30000000E+00  1.30000000E+00  1.70000000E+00
  1.70000000E+00  1.70000000E+00  1.70000000E+00  1.70000000E+00  1.30000000E+00
  1.70000000E+00  1.70000000E+00  1.70000000E+00  1.70000000E+00  1.70000000E+00
  1.30000000E+00  1.30000000E+00  1.70000000E+00  1.30000000E+00  1.70000000E+00
  1.70000000E+00  1.30000000E+00  1.30000000E+00  1.30000000E+00  1.70000000E+00
  1.70000000E+00  1.30000000E+00  1.70000000E+00  1.70000000E+00  1.30000000E+00
  1.70000000E+00  1.70000000E+00  1.30000000E+00  1.70000000E+00  1.70000000E+00
  1.30000000E+00  1.70000000E+00  1.30000000E+00  1.30000000E+00  1.30000000E+00
  1.70000000E+00  1.70000000E+00  1.70000000E+00  1.70000000E+00  1.70000000E+00
  1.30000000E+00  1.70000000E+00  1.70000000E+00  1.70000000E+00  1.70000000E+00
  1.70000000E+00  1.30000000E+00  1.30000000E+00  1.70000000E+00  1.30000000E+00
  1.70000000E+00  1.70000000E+00  1.30000000E+00  1.30000000E+00  1.30000000E+00
  1.70000000E+00  1.70000000E+00  1.30000000E+00  1.70000000E+00  1.70000000E+00
  1.30000000E+00  1.70000000E+00  1.70000000E+00  1.30000000E+00  1.70000000E+00
  1.70000000E+00  1.30000000E+00  1.70000000E+00  1.30000000E+00  1.30000000E+00
  1.30000000E+00  1.70000000E+00  1.70000000E+00  1.70000000E+00  1.70000000E+00
  1.70000000E+00  1.30000000E+00  1.70000000E+00  1.70000000E+00  1.70000000E+00
  1.70000000E+00  1.70000000E+00  1.30000000E+00  1.30000000E+00  1.70000000E+00
  1.30000000E+00  1.70000000E+00  1.70000000E+00  1.30000000E+00  1.30000000E+00
  1.30000000E+00  1.70000000E+00  1.70000000E+00  1.30000000E+00  1.70000000E+00
  1.70000000E+00  1.30000000E+00  1.70000000E+00  1.70000000E+00  1.30000000E+00
  1.70000000E+00  1.70000000E+00  1.30000000E+00  1.70000000E+00  1.30000000E+00
  1.30000000E+00  1.30000000E+00  1.70000000E+00  1.70000000E+00  1.70000000E+00
  1.70000000E+00  1.70000000E+00  1.30000000E+00  1.70000000E+00  1.70000000E+00
  1.70000000E+00  1.70000000E+00  1.70000000E+00  1.30000000E+00  1.30000000E+00
  1.70000000E+00  1.30000000E+00  1.70000000E+00  1.70000000E+00  1.30000000E+00
  1.30000000E+00  1.30000000E+00  1.70000000E+00  1.70000000E+00  1.30000000E+00
  1.70000000E+00  1.70000000E+00  1.30000000E+00  1.70000000E+00  1.70000000E+00
  1.30000000E+00  1.70000000E+00  1.70000000E+00  1.30000000E+00  1.70000000E+00
  1.30000000E+00  1.30000000E+00  1.30000000E+00  1.70000000E+00  1.70000000E+00
  1.70000000E+00  1.70000000E+00  1.70000000E+00  1.30000000E+00  1.70000000E+00
  1.70000000E+00  1.70000000E+00  1.70000000E+00  1.70000000E+00  1.30000000E+00
  1.30000000E+00  1.70000000E+00  1.30000000E+00  1.70000000E+00  1.70000000E+00
  1.30000000E+00  1.30000000E+00  1.30000000E+00  1.70000000E+00  1.70000000E+00
  1.30000000E+00  1.70000000E+00  1.70000000E+00  1.30000000E+00  1.70000000E+00
  1.70000000E+00  1.30000000E+00  1.70000000E+00  1.70000000E+00  1.30000000E+00
  1.70000000E+00  1.30000000E+00  1.30000000E+00  1.30000000E+00  1.70000000E+00
  1.70000000E+00  1.70000000E+00  1.70000000E+00  1.70000000E+00  1.30000000E+00
  1.70000000E+00  1.70000000E+00  1.70000000E+00  1.70000000E+00  1.70000000E+00
  1.30000000E+00  1.30000000E+00  1.70000000E+00  1.30000000E+00  1.70000000E+00
  1.70000000E+00  1.30000000E+00  1.30000000E+00  1.30000000E+00  1.70000000E+00
  1.70000000E+00  1.30000000E+00  1.70000000E+00  1.70000000E+00  1.30000000E+00
  1.70000000E+00  1.70000000E+00  1.30000000E+00  1.70000000E+00  1.70000000E+00
  1.30000000E+00  1.70000000E+00  1.30000000E+00  1.30000000E+00  1.30000000E+00
  1.70000000E+00  1.70000000E+00  1.70000000E+00  1.70000000E+00  1.70000000E+00
  1.30000000E+00  1.70000000E+00  1.70000000E+00  1.70000000E+00  1.70000000E+00
  1.70000000E+00  1.30000000E+00  1.30000000E+00  1.70000000E+00  1.30000000E+00
  1.70000000E+00  1.70000000E+00  1.30000000E+00  1.30000000E+00  1.30000000E+00
  1.70000000E+00  1.70000000E+00  1.30000000E+00  1.70000000E+00  1.70000000E+00
  1.30000000E+00  1.70000000E+00  1.70000000E+00  1.30000000E+00  1.70000000E+00
  1.70000000E+00  1.30000000E+00  1.70000000E+00  1.30000000E+00  1.30000000E+00
  1.30000000E+00  1.70000000E+00  1.70000000E+00  1.70000000E+00  1.70000000E+00
  1.70000000E+00  1.30000000E+00  1.70000000E+00  1.70000000E+00  1.70000000E+00
  1.70000000E+00  1.70000000E+00  1.30000000E+00  1.30000000E+00  1.70000000E+00
  1.30000000E+00  1.70000000E+00  1.70000000E+00  1.30000000E+00  1.30000000E+00
  1.30000000E+00  1.70000000E+00  1.70000000E+00  1.30000000E+00  1.70000000E+00
  1.70000000E+00  1.30000000E+00  1.70000000E+00  1.70000000E+00  1.30000000E+00
  1.70000000E+00  1.70000000E+00  1.30000000E+00  1.70000000E+00  1.30000000E+00
  1.30000000E+00  1.30000000E+00  1.70000000E+00  1.70000000E+00  1.70000000E+00
  1.70000000E+00  1.70000000E+00  1.30000000E+00  1.70000000E+00  1.70000000E+00
  1.70000000E+00  1.70000000E+00  1.70000000E+00  1.30000000E+00  1.30000000E+00
  1.70000000E+00  1.30000000E+00  1.70000000E+00  1.70000000E+00  1.30000000E+00
  1.30000000E+00  1.30000000E+00  1.70000000E+00  1.70000000E+00  1.30000000E+00
  1.70000000E+00  1.70000000E+00  1.30000000E+00  1.70000000E+00  1.70000000E+00
  1.30000000E+00  1.70000000E+00  1.70000000E+00  1.30000000E+00  1.70000000E+00
  1.30000000E+00  1.30000000E+00  1.30000000E+00  1.70000000E+00  1.70000000E+00
  1.70000000E+00  1.70000000E+00  1.70000000E+00  1.30000000E+00  1.70000000E+00
  1.70000000E+00  1.70000000E+00  1.70000000E+00  1.70000000E+00  1.30000000E+00
  1.30000000E+00  1.70000000E+00  1.30000000E+00  1.70000000E+00  1.70000000E+00
  1.30000000E+00  1.30000000E+00  1.30000000E+00  1.70000000E+00  1.70000000E+00
  1.30000000E+00  1.70000000E+00  1.70000000E+00  1.30000000E+00  1.70000000E+00
  1.70000000E+00  1.30000000E+00  1.70000000E+00  1.70000000E+00  1.30000000E+00
  1.70000000E+00  1.30000000E+00  1.30000000E+00  1.30000000E+00  1.70000000E+00
  1.70000000E+00  1.70000000E+00  1.70000000E+00  1.70000000E+00  1.30000000E+00
  1.70000000E+00  1.70000000E+00  1.70000000E+00  1.70000000E+00  1.70000000E+00
  1.30000000E+00  1.30000000E+00  1.70000000E+00  1.30000000E+00  1.70000000E+00
  1.70000000E+00  1.30000000E+00  1.30000000E+00  1.30000000E+00  1.70000000E+00
  1.70000000E+00  1.30000000E+00  1.70000000E+00  1.70000000E+00  1.30000000E+00
  1.70000000E+00  1.70000000E+00  1.30000000E+00  1.70000000E+00  1.70000000E+00
  1.30000000E+00  1.70000000E+00  1.30000000E+00  1.30000000E+00  1.30000000E+00
  1.70000000E+00  1.70000000E+00  1.70000000E+00  1.70000000E+00  1.70000000E+00
  1.30000000E+00  1.70000000E+00  1.70000000E+00  1.70000000E+00  1.70000000E+00
  1.70000000E+00  1.30000000E+00  1.30000000E+00  1.70000000E+00  1.30000000E+00
  1.70000000E+00  1.70000000E+00  1.30000000E+00  1.30000000E+00  1.30000000E+00
  1.70000000E+00  1.70000000E+00  1.30000000E+00  1.70000000E+00  1.70000000E+00
  1.30000000E+00  1.70000000E+00  1.70000000E+00  1.30000000E+00  1.70000000E+00
  1.70000000E+00  1.30000000E+00  1.70000000E+00  1.30000000E+00  1.30000000E+00
  1.30000000E+00  1.70000000E+00  1.70000000E+00  1.70000000E+00  1.70000000E+00
  1.70000000E+00  1.30000000E+00  1.70000000E+00  1.70000000E+00  1.70000000E+00
  1.70000000E+00  1.70000000E+00  1.30000000E+00  1.30000000E+00  1.70000000E+00
  1.30000000E+00  1.70000000E+00  1.70000000E+00  1.30000000E+00  1.30000000E+00
  1.30000000E+00  1.70000000E+00  1.70000000E+00  1.30000000E+00  1.70000000E+00
  1.70000000E+00  1.30000000E+00  1.70000000E+00  1.70000000E+00  1.30000000E+00
  1.70000000E+00  1.70000000E+00  1.30000000E+00  1.70000000E+00  1.30000000E+00
  1.30000000E+00  1.30000000E+00  1.70000000E+00  1.70000000E+00  1.70000000E+00
  1.70000000E+00  1.70000000E+00  1.30000000E+00  1.70000000E+00  1.70000000E+00
  1.70000000E+00  1.70000000E+00  1.70000000E+00  1.30000000E+00  1.30000000E+00
  1.70000000E+00  1.30000000E+00  1.70000000E+00  1.70000000E+00  1.30000000E+00
  1.30000000E+00  1.30000000E+00  1.70000000E+00  1.70000000E+00  1.30000000E+00
  1.70000000E+00  1.70000000E+00  1.30000000E+00  1.70000000E+00  1.70000000E+00
  1.30000000E+00  1.70000000E+00  1.70000000E+00  1.30000000E+00  1.70000000E+00
  1.30000000E+00  1.30000000E+00  1.30000000E+00  1.70000000E+00  1.70000000E+00
  1.70000000E+00  1.70000000E+00  1.70000000E+00  1.30000000E+00  1.70000000E+00
  1.70000000E+00  1.70000000E+00  1.70000000E+00  1.70000000E+00  1.30000000E+00
  1.30000000E+00  1.70000000E+00  1.30000000E+00  1.70000000E+00  1.70000000E+00
  1.30000000E+00  1.30000000E+00  1.30000000E+00  1.70000000E+00  1.70000000E+00
  1.30000000E+00  1.70000000E+00  1.70000000E+00  1.30000000E+00  1.70000000E+00
  1.70000000E+00  1.30000000E+00  1.70000000E+00  1.70000000E+00  1.30000000E+00
  1.70000000E+00  1.30000000E+00  1.30000000E+00  1.30000000E+00  1.70000000E+00
  1.70000000E+00  1.70000000E+00  1.70000000E+00  1.70000000E+00  1.30000000E+00
  1.70000000E+00  1.70000000E+00  1.70000000E+00  1.70000000E+00  1.70000000E+00
  1.30000000E+00  1.30000000E+00  1.70000000E+00  1.30000000E+00  1.70000000E+00
  1.70000000E+00  1.30000000E+00  1.30000000E+00  1.30000000E+00  1.70000000E+00
  1.70000000E+00  1.30000000E+00  1.70000000E+00  1.70000000E+00  1.30000000E+00
  1.70000000E+00  1.70000000E+00  1.30000000E+00  1.70000000E+00  1.70000000E+00
  1.30000000E+00  1.70000000E+00  1.30000000E+00  1.30000000E+00  1.30000000E+00
  1.70000000E+00  1.70000000E+00  1.70000000E+00  1.70000000E+00  1.70000000E+00
  1.30000000E+00  1.70000000E+00  1.70000000E+00  1.70000000E+00  1.70000000E+00
  1.70000000E+00  1.30000000E+00  1.30000000E+00  1.70000000E+00  1.30000000E+00
  1.70000000E+00  1.70000000E+00  1.30000000E+00  1.30000000E+00  1.30000000E+00
  1.70000000E+00  1.70000000E+00  1.30000000E+00  1.70000000E+00  1.70000000E+00
  1.30000000E+00  1.70000000E+00  1.70000000E+00  1.30000000E+00  1.70000000E+00
  1.70000000E+00  1.30000000E+00  1.70000000E+00  1.30000000E+00  1.30000000E+00
  1.30000000E+00  1.70000000E+00  1.70000000E+00  1.70000000E+00  1.70000000E+00
  1.70000000E+00  1.30000000E+00  1.70000000E+00  1.70000000E+00  1.70000000E+00
  1.70000000E+00  1.70000000E+00  1.30000000E+00  1.30000000E+00  1.70000000E+00
  1.30000000E+00  1.70000000E+00  1.70000000E+00  1.30000000E+00  1.30000000E+00
  1.30000000E+00  1.70000000E+00  1.70000000E+00  1.30000000E+00  1.70000000E+00
  1.70000000E+00  1.30000000E+00  1.70000000E+00  1.70000000E+00  1.30000000E+00
  1.70000000E+00  1.70000000E+00  1.30000000E+00  1.70000000E+00  1.30000000E+00
  1.30000000E+00  1.30000000E+00  1.70000000E+00  1.70000000E+00  1.70000000E+00
  1.70000000E+00  1.70000000E+00  1.30000000E+00  1.70000000E+00  1.70000000E+00
  1.70000000E+00  1.70000000E+00  1.70000000E+00  1.30000000E+00  1.30000000E+00
  1.70000000E+00  1.30000000E+00  1.70000000E+00  1.70000000E+00  1.30000000E+00
  1.30000000E+00  1.30000000E+00  1.70000000E+00  1.70000000E+00  1.30000000E+00
  1.70000000E+00  1.70000000E+00  1.30000000E+00  1.70000000E+00  1.70000000E+00
  1.30000000E+00  1.70000000E+00  1.70000000E+00  1.30000000E+00  1.70000000E+00
  1.30000000E+00  1.30000000E+00  1.30000000E+00  1.70000000E+00  1.70000000E+00
  1.70000000E+00  1.70000000E+00  1.70000000E+00  1.30000000E+00  1.70000000E+00
  1.70000000E+00  1.70000000E+00  1.70000000E+00  1.70000000E+00  1.30000000E+00
  1.30000000E+00  1.70000000E+00  1.30000000E+00  1.70000000E+00  1.70000000E+00
  1.30000000E+00  1.30000000E+00  1.30000000E+00  1.70000000E+00  1.70000000E+00
  1.30000000E+00  1.70000000E+00  1.70000000E+00  1.30000000E+00  1.70000000E+00
  1.70000000E+00  1.30000000E+00  1.70000000E+00  1.70000000E+00  1.30000000E+00
  1.70000000E+00  1.30000000E+00  1.30000000E+00  1.30000000E+00  1.70000000E+00
  1.70000000E+00  1.70000000E+00  1.70000000E+00  1.70000000E+00  1.30000000E+00
  1.70000000E+00  1.70000000E+00  1.70000000E+00  1.70000000E+00  1.70000000E+00
  1.30000000E+00  1.30000000E+00  1.70000000E+00  1.30000000E+00  1.70000000E+00
  1.70000000E+00  1.30000000E+00  1.30000000E+00  1.30000000E+00  1.70000000E+00
  1.70000000E+00  1.30000000E+00  1.70000000E+00  1.70000000E+00  1.30000000E+00
  1.70000000E+00  1.70000000E+00  1.30000000E+00  1.70000000E+00  1.70000000E+00
  1.30000000E+00  1.70000000E+00  1.30000000E+00  1.30000000E+00  1.30000000E+00
  1.70000000E+00  1.70000000E+00  1.70000000E+00  1.70000000E+00  1.70000000E+00
  1.30000000E+00  1.70000000E+00  1.70000000E+00  1.70000000E+00  1.70000000E+00
  1.70000000E+00  1.30000000E+00  1.30000000E+00  1.70000000E+00  1.30000000E+00
  1.70000000E+00  1.70000000E+00  1.30000000E+00  1.30000000E+00  1.30000000E+00
  1.70000000E+00  1.70000000E+00  1.30000000E+00  1.70000000E+00  1.70000000E+00
  1.30000000E+00  1.70000000E+00  1.70000000E+00  1.30000000E+00  1.70000000E+00
  1.70000000E+00  1.30000000E+00  1.70000000E+00  1.30000000E+00  1.30000000E+00
  1.30000000E+00  1.70000000E+00  1.70000000E+00  1.70000000E+00  1.70000000E+00
  1.70000000E+00  1.30000000E+00  1.70000000E+00  1.70000000E+00  1.70000000E+00
  1.70000000E+00  1.70000000E+00  1.30000000E+00  1.30000000E+00  1.70000000E+00
  1.30000000E+00  1.70000000E+00  1.70000000E+00  1.30000000E+00  1.30000000E+00
  1.30000000E+00  1.70000000E+00  1.70000000E+00  1.30000000E+00  1.70000000E+00
  1.70000000E+00  1.30000000E+00  1.70000000E+00  1.70000000E+00  1.30000000E+00
  1.70000000E+00  1.70000000E+00  1.30000000E+00  1.70000000E+00  1.30000000E+00
  1.30000000E+00  1.30000000E+00  1.70000000E+00  1.70000000E+00  1.70000000E+00
  1.70000000E+00  1.70000000E+00  1.30000000E+00  1.70000000E+00  1.70000000E+00
  1.70000000E+00  1.70000000E+00  1.70000000E+00  1.30000000E+00  1.30000000E+00
  1.70000000E+00  1.30000000E+00  1.70000000E+00  1.70000000E+00  1.30000000E+00
  1.30000000E+00  1.30000000E+00  1.70000000E+00  1.70000000E+00  1.30000000E+00
  1.70000000E+00  1.70000000E+00  1.30000000E+00  1.70000000E+00  1.70000000E+00
  1.30000000E+00  1.70000000E+00  1.70000000E+00  1.30000000E+00  1.70000000E+00
  1.30000000E+00  1.30000000E+00  1.30000000E+00  1.70000000E+00  1.70000000E+00
  1.70000000E+00  1.70000000E+00  1.70000000E+00  1.30000000E+00  1.70000000E+00
  1.70000000E+00  1.70000000E+00  1.70000000E+00  1.70000000E+00  1.30000000E+00
  1.30000000E+00  1.70000000E+00  1.30000000E+00  1.70000000E+00  1.70000000E+00
  1.30000000E+00  1.30000000E+00  1.30000000E+00  1.70000000E+00  1.70000000E+00
  1.30000000E+00  1.70000000E+00  1.70000000E+00  1.30000000E+00  1.70000000E+00
  1.70000000E+00  1.30000000E+00  1.70000000E+00  1.70000000E+00  1.30000000E+00
  1.70000000E+00  1.30000000E+00  1.30000000E+00  1.30000000E+00  1.70000000E+00
  1.70000000E+00  1.70000000E+00  1.70000000E+00  1.70000000E+00  1.30000000E+00
  1.70000000E+00  1.70000000E+00  1.70000000E+00  1.70000000E+00  1.70000000E+00
  1.30000000E+00  1.30000000E+00  1.70000000E+00  1.30000000E+00  1.70000000E+00
  1.70000000E+00  1.30000000E+00  1.30000000E+00  1.30000000E+00  1.70000000E+00
  1.70000000E+00  1.30000000E+00  1.70000000E+00  1.70000000E+00  1.30000000E+00
  1.70000000E+00  1.70000000E+00  1.30000000E+00  1.70000000E+00  1.70000000E+00
  1.30000000E+00  1.70000000E+00  1.30000000E+00  1.30000000E+00  1.30000000E+00
  1.70000000E+00  1.70000000E+00  1.70000000E+00  1.70000000E+00  1.70000000E+00
  1.30000000E+00  1.70000000E+00  1.70000000E+00  1.70000000E+00  1.70000000E+00
  1.70000000E+00  1.30000000E+00  1.30000000E+00  1.70000000E+00  1.30000000E+00
  1.70000000E+00  1.70000000E+00  1.30000000E+00  1.30000000E+00  1.30000000E+00
  1.70000000E+00  1.70000000E+00  1.30000000E+00  1.70000000E+00  1.70000000E+00
  1.30000000E+00  1.70000000E+00  1.70000000E+00  1.30000000E+00  1.70000000E+00
  1.70000000E+00  1.30000000E+00  1.70000000E+00  1.30000000E+00  1.30000000E+00
  1.30000000E+00  1.70000000E+00  1.70000000E+00  1.70000000E+00  1.70000000E+00
  1.70000000E+00  1.30000000E+00  1.70000000E+00  1.70000000E+00  1.70000000E+00
  1.70000000E+00  1.70000000E+00  1.30000000E+00  1.30000000E+00  1.70000000E+00
  1.30000000E+00  1.70000000E+00  1.70000000E+00  1.30000000E+00  1.30000000E+00
  1.30000000E+00  1.70000000E+00  1.70000000E+00  1.30000000E+00  1.70000000E+00
  1.70000000E+00  1.30000000E+00  1.70000000E+00  1.70000000E+00  1.30000000E+00
  1.70000000E+00  1.70000000E+00  1.30000000E+00  1.70000000E+00  1.30000000E+00
  1.30000000E+00  1.30000000E+00  1.70000000E+00  1.70000000E+00  1.70000000E+00
  1.70000000E+00  1.70000000E+00  1.30000000E+00  1.70000000E+00  1.70000000E+00
  1.70000000E+00  1.70000000E+00  1.70000000E+00  1.30000000E+00  1.30000000E+00
  1.70000000E+00  1.30000000E+00  1.70000000E+00  1.70000000E+00  1.30000000E+00
  1.30000000E+00  1.30000000E+00  1.70000000E+00  1.70000000E+00  1.30000000E+00
  1.70000000E+00  1.70000000E+00  1.30000000E+00  1.70000000E+00  1.70000000E+00
  1.30000000E+00  1.70000000E+00  1.70000000E+00  1.30000000E+00  1.70000000E+00
  1.30000000E+00  1.30000000E+00  1.30000000E+00  1.70000000E+00  1.70000000E+00
  1.70000000E+00  1.70000000E+00  1.70000000E+00  1.30000000E+00  1.70000000E+00
  1.70000000E+00  1.70000000E+00  1.70000000E+00  1.70000000E+00  1.30000000E+00
  1.30000000E+00  1.70000000E+00  1.30000000E+00  1.70000000E+00  1.70000000E+00
  1.30000000E+00  1.30000000E+00  1.30000000E+00  1.70000000E+00  1.70000000E+00
  1.30000000E+00  1.70000000E+00  1.70000000E+00  1.30000000E+00  1.70000000E+00
  1.70000000E+00  1.30000000E+00  1.70000000E+00  1.70000000E+00  1.30000000E+00
  1.70000000E+00  1.30000000E+00  1.30000000E+00  1.30000000E+00  1.70000000E+00
  1.70000000E+00  1.70000000E+00  1.70000000E+00  1.70000000E+00  1.30000000E+00
  1.70000000E+00  1.70000000E+00  1.70000000E+00  1.70000000E+00  1.70000000E+00
  1.30000000E+00  1.30000000E+00  1.70000000E+00  1.30000000E+00  1.70000000E+00
  1.70000000E+00  1.30000000E+00  1.30000000E+00  1.30000000E+00  1.70000000E+00
  1.70000000E+00  1.30000000E+00  1.70000000E+00  1.70000000E+00  1.30000000E+00
  1.70000000E+00  1.70000000E+00  1.30000000E+00  1.70000000E+00  1.70000000E+00
  1.30000000E+00  1.70000000E+00  1.30000000E+00  1.30000000E+00  1.30000000E+00
  1.70000000E+00  1.70000000E+00  1.70000000E+00  1.70000000E+00  1.70000000E+00
  1.30000000E+00  1.70000000E+00  1.70000000E+00  1.70000000E+00  1.70000000E+00
  1.70000000E+00  1.30000000E+00  1.30000000E+00  1.70000000E+00  1.30000000E+00
  1.70000000E+00  1.70000000E+00  1.30000000E+00  1.30000000E+00  1.30000000E+00
  1.70000000E+00  1.70000000E+00  1.30000000E+00  1.70000000E+00  1.70000000E+00
  1.30000000E+00  1.70000000E+00  1.70000000E+00  1.30000000E+00  1.70000000E+00
  1.70000000E+00  1.30000000E+00  1.70000000E+00  1.30000000E+00  1.30000000E+00
  1.30000000E+00  1.70000000E+00  1.70000000E+00  1.70000000E+00  1.70000000E+00
  1.70000000E+00  1.30000000E+00  1.70000000E+00  1.70000000E+00  1.70000000E+00
  1.70000000E+00  1.70000000E+00  1.30000000E+00  1.30000000E+00  1.70000000E+00
  1.30000000E+00  1.70000000E+00  1.70000000E+00  1.30000000E+00  1.30000000E+00
  1.30000000E+00  1.70000000E+00  1.70000000E+00  1.30000000E+00  1.70000000E+00
  1.70000000E+00  1.30000000E+00  1.70000000E+00  1.70000000E+00  1.30000000E+00
  1.70000000E+00  1.70000000E+00  1.30000000E+00  1.70000000E+00  1.30000000E+00
  1.30000000E+00  1.30000000E+00  1.70000000E+00  1.70000000E+00  1.70000000E+00
  1.70000000E+00  1.70000000E+00  1.30000000E+00  1.70000000E+00  1.70000000E+00
  1.70000000E+00  1.70000000E+00  1.70000000E+00  1.30000000E+00  1.30000000E+00
  1.70000000E+00  1.30000000E+00  1.70000000E+00  1.70000000E+00  1.30000000E+00
  1.30000000E+00  1.30000000E+00  1.70000000E+00  1.70000000E+00  1.30000000E+00
  1.70000000E+00  1.70000000E+00  1.30000000E+00  1.70000000E+00  1.70000000E+00
  1.30000000E+00  1.70000000E+00  1.70000000E+00  1.30000000E+00  1.70000000E+00
  1.30000000E+00  1.30000000E+00  1.30000000E+00  1.70000000E+00  1.70000000E+00
  1.70000000E+00  1.70000000E+00  1.70000000E+00  1.30000000E+00  1.70000000E+00
  1.70000000E+00  1.70000000E+00  1.70000000E+00  1.70000000E+00  1.30000000E+00
  1.30000000E+00  1.70000000E+00  1.30000000E+00  1.70000000E+00  1.70000000E+00
  1.30000000E+00  1.30000000E+00  1.30000000E+00  1.70000000E+00  1.70000000E+00
  1.30000000E+00  1.70000000E+00  1.70000000E+00  1.30000000E+00  1.70000000E+00
  1.70000000E+00  1.30000000E+00  1.70000000E+00  1.70000000E+00  1.30000000E+00
  1.70000000E+00  1.30000000E+00  1.30000000E+00  1.30000000E+00  1.70000000E+00
  1.70000000E+00  1.70000000E+00  1.70000000E+00  1.70000000E+00  1.30000000E+00
  1.70000000E+00  1.70000000E+00  1.70000000E+00  1.70000000E+00  1.70000000E+00
  1.30000000E+00  1.30000000E+00  1.70000000E+00  1.30000000E+00  1.70000000E+00
  1.70000000E+00  1.30000000E+00  1.30000000E+00  1.30000000E+00  1.70000000E+00
  1.70000000E+00  1.30000000E+00  1.70000000E+00  1.70000000E+00  1.30000000E+00
  1.70000000E+00  1.70000000E+00  1.30000000E+00  1.70000000E+00  1.70000000E+00
  1.30000000E+00  1.70000000E+00  1.30000000E+00  1.30000000E+00  1.30000000E+00
  1.70000000E+00  1.70000000E+00  1.70000000E+00  1.70000000E+00  1.70000000E+00
  1.30000000E+00  1.70000000E+00  1.70000000E+00  1.70000000E+00  1.70000000E+00
  1.70000000E+00  1.30000000E+00  1.30000000E+00  1.70000000E+00  1.30000000E+00
  1.70000000E+00  1.70000000E+00  1.30000000E+00  1.30000000E+00  1.30000000E+00
  1.70000000E+00  1.70000000E+00  1.30000000E+00  1.70000000E+00  1.70000000E+00
  1.30000000E+00  1.70000000E+00  1.70000000E+00  1.30000000E+00  1.70000000E+00
  1.70000000E+00  1.30000000E+00  1.70000000E+00  1.30000000E+00  1.30000000E+00
  1.30000000E+00  1.70000000E+00  1.70000000E+00  1.70000000E+00  1.70000000E+00
  1.70000000E+00  1.30000000E+00  1.70000000E+00  1.70000000E+00  1.70000000E+00
  1.70000000E+00  1.70000000E+00  1.30000000E+00  1.30000000E+00  1.70000000E+00
  1.30000000E+00  1.70000000E+00  1.70000000E+00  1.30000000E+00  1.30000000E+00
  1.30000000E+00  1.70000000E+00  1.70000000E+00  1.30000000E+00  1.70000000E+00
  1.70000000E+00  1.30000000E+00  1.70000000E+00  1.70000000E+00  1.30000000E+00
  1.70000000E+00  1.70000000E+00  1.30000000E+00  1.70000000E+00  1.30000000E+00
  1.30000000E+00  1.30000000E+00  1.70000000E+00  1.70000000E+00  1.70000000E+00
  1.70000000E+00  1.70000000E+00  1.30000000E+00  1.70000000E+00  1.70000000E+00
  1.70000000E+00  1.70000000E+00  1.70000000E+00  1.30000000E+00  1.30000000E+00
  1.70000000E+00  1.30000000E+00  1.70000000E+00  1.70000000E+00  1.30000000E+00
  1.30000000E+00  1.30000000E+00  1.70000000E+00  1.70000000E+00  1.30000000E+00
  1.70000000E+00  1.70000000E+00  1.30000000E+00  1.70000000E+00  1.70000000E+00
  1.30000000E+00  1.70000000E+00  1.70000000E+00  1.30000000E+00  1.70000000E+00
  1.30000000E+00  1.30000000E+00  1.30000000E+00  1.70000000E+00  1.70000000E+00
  1.70000000E+00  1.70000000E+00  1.70000000E+00  1.30000000E+00  1.70000000E+00
  1.70000000E+00  1.70000000E+00  1.70000000E+00  1.70000000E+00  1.30000000E+00
  1.30000000E+00  1.70000000E+00  1.30000000E+00  1.70000000E+00  1.70000000E+00
  1.30000000E+00  1.30000000E+00  1.30000000E+00  1.70000000E+00  1.70000000E+00
  1.30000000E+00  1.70000000E+00  1.70000000E+00  1.30000000E+00  1.70000000E+00
  1.70000000E+00  1.30000000E+00  1.70000000E+00  1.70000000E+00  1.30000000E+00
  1.70000000E+00  1.30000000E+00  1.30000000E+00  1.30000000E+00  1.70000000E+00
  1.70000000E+00  1.70000000E+00  1.70000000E+00  1.70000000E+00  1.30000000E+00
  1.70000000E+00  1.70000000E+00  1.70000000E+00  1.70000000E+00  1.70000000E+00
  1.30000000E+00  1.30000000E+00  1.70000000E+00  1.30000000E+00  1.70000000E+00
  1.70000000E+00  1.30000000E+00  1.30000000E+00  1.30000000E+00  1.70000000E+00
  1.70000000E+00  1.30000000E+00  1.70000000E+00  1.70000000E+00  1.30000000E+00
  1.70000000E+00  1.70000000E+00  1.30000000E+00  1.70000000E+00  1.70000000E+00
  1.30000000E+00  1.70000000E+00  1.30000000E+00  1.30000000E+00  1.30000000E+00
  1.70000000E+00  1.70000000E+00  1.70000000E+00  1.70000000E+00  1.70000000E+00
  1.30000000E+00  1.70000000E+00  1.70000000E+00  1.70000000E+00  1.70000000E+00
  1.70000000E+00  1.30000000E+00  1.30000000E+00  1.70000000E+00  1.30000000E+00
  1.70000000E+00  1.70000000E+00  1.30000000E+00  1.30000000E+00  1.30000000E+00
  1.70000000E+00  1.70000000E+00  1.30000000E+00  1.70000000E+00  1.70000000E+00
  1.30000000E+00  1.70000000E+00  1.70000000E+00  1.30000000E+00  1.70000000E+00
  1.70000000E+00  1.30000000E+00  1.70000000E+00  1.30000000E+00  1.30000000E+00
  1.30000000E+00  1.70000000E+00  1.70000000E+00  1.70000000E+00  1.70000000E+00
  1.70000000E+00  1.30000000E+00  1.70000000E+00  1.70000000E+00  1.70000000E+00
  1.70000000E+00  1.70000000E+00  1.30000000E+00  1.30000000E+00  1.70000000E+00
  1.30000000E+00  1.70000000E+00  1.70000000E+00  1.30000000E+00  1.30000000E+00
  1.30000000E+00  1.70000000E+00  1.70000000E+00  1.30000000E+00  1.70000000E+00
  1.70000000E+00  1.30000000E+00  1.70000000E+00  1.70000000E+00  1.30000000E+00
  1.70000000E+00  1.70000000E+00  1.30000000E+00  1.70000000E+00  1.30000000E+00
  1.30000000E+00  1.30000000E+00  1.70000000E+00  1.70000000E+00  1.70000000E+00
  1.70000000E+00  1.70000000E+00  1.30000000E+00  1.70000000E+00  1.70000000E+00
  1.70000000E+00  1.70000000E+00  1.70000000E+00  1.30000000E+00  1.30000000E+00
  1.70000000E+00  1.30000000E+00  1.70000000E+00  1.70000000E+00  1.30000000E+00
  1.30000000E+00  1.30000000E+00  1.70000000E+00  1.70000000E+00  1.30000000E+00
  1.70000000E+00  1.70000000E+00  1.30000000E+00  1.70000000E+00  1.70000000E+00
  1.30000000E+00  1.70000000E+00  1.70000000E+00  1.30000000E+00  1.70000000E+00
  1.30000000E+00  1.30000000E+00  1.30000000E+00  1.70000000E+00  1.70000000E+00
  1.70000000E+00  1.70000000E+00  1.70000000E+00  1.30000000E+00  1.70000000E+00
  1.70000000E+00  1.70000000E+00  1.70000000E+00  1.70000000E+00  1.30000000E+00
  1.30000000E+00  1.70000000E+00  1.30000000E+00  1.70000000E+00  1.70000000E+00
  1.30000000E+00  1.30000000E+00  1.30000000E+00  1.70000000E+00  1.70000000E+00
  1.30000000E+00  1.70000000E+00  1.70000000E+00  1.30000000E+00  1.70000000E+00
  1.70000000E+00  1.30000000E+00  1.70000000E+00  1.70000000E+00  1.30000000E+00
  1.70000000E+00  1.30000000E+00  1.30000000E+00  1.30000000E+00  1.70000000E+00
  1.70000000E+00  1.70000000E+00  1.70000000E+00  1.70000000E+00  1.30000000E+00
  1.70000000E+00  1.70000000E+00  1.70000000E+00  1.70000000E+00  1.70000000E+00
  1.30000000E+00  1.30000000E+00  1.70000000E+00  1.30000000E+00  1.70000000E+00
  1.70000000E+00  1.30000000E+00  1.30000000E+00  1.30000000E+00  1.70000000E+00
  1.70000000E+00  1.30000000E+00  1.70000000E+00  1.70000000E+00  1.30000000E+00
  1.70000000E+00  1.70000000E+00  1.30000000E+00  1.70000000E+00  1.70000000E+00
  1.30000000E+00  1.70000000E+00  1.30000000E+00  1.30000000E+00  1.30000000E+00
  1.70000000E+00  1.70000000E+00  1.70000000E+00  1.70000000E+00  1.70000000E+00
  1.30000000E+00  1.70000000E+00  1.70000000E+00  1.70000000E+00  1.70000000E+00
  1.70000000E+00  1.30000000E+00  1.30000000E+00  1.70000000E+00  1.30000000E+00
  1.70000000E+00  1.70000000E+00  1.30000000E+00  1.30000000E+00  1.30000000E+00
  1.70000000E+00  1.70000000E+00  1.30000000E+00  1.70000000E+00  1.70000000E+00
  1.30000000E+00  1.70000000E+00  1.70000000E+00  1.30000000E+00  1.70000000E+00
  1.70000000E+00  1.30000000E+00  1.70000000E+00  1.30000000E+00  1.30000000E+00
  1.30000000E+00  1.70000000E+00  1.70000000E+00  1.70000000E+00  1.70000000E+00
  1.70000000E+00  1.30000000E+00  1.70000000E+00  1.70000000E+00  1.70000000E+00
  1.70000000E+00  1.70000000E+00  1.30000000E+00  1.30000000E+00  1.70000000E+00
  1.30000000E+00  1.70000000E+00  1.70000000E+00  1.30000000E+00  1.30000000E+00
  1.30000000E+00  1.70000000E+00  1.70000000E+00  1.30000000E+00  1.70000000E+00
  1.70000000E+00  1.30000000E+00  1.70000000E+00  1.70000000E+00  1.30000000E+00
  1.70000000E+00  1.70000000E+00  1.30000000E+00  1.70000000E+00  1.30000000E+00
  1.30000000E+00  1.30000000E+00  1.70000000E+00  1.70000000E+00  1.70000000E+00
  1.70000000E+00  1.70000000E+00  1.30000000E+00  1.70000000E+00  1.70000000E+00
  1.70000000E+00  1.70000000E+00  1.70000000E+00  1.30000000E+00  1.30000000E+00
  1.70000000E+00  1.30000000E+00  1.70000000E+00  1.70000000E+00  1.30000000E+00
  1.30000000E+00  1.30000000E+00  1.70000000E+00  1.70000000E+00  1.30000000E+00
  1.70000000E+00  1.70000000E+00  1.30000000E+00  1.70000000E+00  1.70000000E+00
  1.30000000E+00  1.70000000E+00  1.70000000E+00  1.30000000E+00  1.70000000E+00
  1.30000000E+00  1.30000000E+00  1.30000000E+00  1.70000000E+00  1.70000000E+00
  1.70000000E+00  1.70000000E+00  1.70000000E+00  1.30000000E+00  1.70000000E+00
  1.70000000E+00  1.70000000E+00  1.70000000E+00  1.70000000E+00  1.30000000E+00
  1.30000000E+00  1.70000000E+00  1.30000000E+00  1.70000000E+00  1.70000000E+00
  1.30000000E+00  1.30000000E+00  1.30000000E+00  1.70000000E+00  1.70000000E+00
  1.30000000E+00  1.70000000E+00  1.70000000E+00  1.30000000E+00  1.70000000E+00
  1.70000000E+00  1.30000000E+00  1.70000000E+00  1.70000000E+00  1.30000000E+00
  1.70000000E+00  1.30000000E+00  1.30000000E+00  1.30000000E+00  1.70000000E+00
  1.70000000E+00  1.70000000E+00  1.70000000E+00  1.70000000E+00  1.30000000E+00
  1.70000000E+00  1.70000000E+00  1.70000000E+00  1.70000000E+00  1.70000000E+00
  1.30000000E+00  1.30000000E+00  1.70000000E+00  1.30000000E+00  1.70000000E+00
  1.70000000E+00  1.30000000E+00  1.30000000E+00  1.30000000E+00  1.70000000E+00
  1.70000000E+00  1.30000000E+00  1.70000000E+00  1.70000000E+00  1.30000000E+00
  1.70000000E+00  1.70000000E+00  1.30000000E+00  1.70000000E+00  1.70000000E+00
  1.30000000E+00  1.70000000E+00  1.30000000E+00  1.30000000E+00  1.30000000E+00
  1.70000000E+00  1.70000000E+00  1.70000000E+00  1.70000000E+00  1.70000000E+00
  1.30000000E+00  1.70000000E+00  1.70000000E+00  1.70000000E+00  1.70000000E+00
  1.70000000E+00  1.30000000E+00  1.30000000E+00  1.70000000E+00  1.30000000E+00
  1.70000000E+00  1.70000000E+00  1.30000000E+00  1.30000000E+00  1.30000000E+00
  1.70000000E+00  1.70000000E+00  1.30000000E+00  1.70000000E+00  1.70000000E+00
  1.30000000E+00  1.70000000E+00  1.70000000E+00  1.30000000E+00  1.70000000E+00
  1.70000000E+00  1.30000000E+00  1.70000000E+00  1.30000000E+00  1.30000000E+00
  1.30000000E+00  1.70000000E+00  1.70000000E+00  1.70000000E+00  1.70000000E+00
  1.70000000E+00  1.30000000E+00  1.70000000E+00  1.70000000E+00  1.70000000E+00
  1.70000000E+00  1.70000000E+00  1.30000000E+00  1.30000000E+00  1.70000000E+00
  1.30000000E+00  1.70000000E+00  1.70000000E+00  1.30000000E+00  1.30000000E+00
  1.30000000E+00  1.70000000E+00  1.70000000E+00  1.30000000E+00  1.70000000E+00
  1.70000000E+00  1.30000000E+00  1.70000000E+00  1.70000000E+00  1.30000000E+00
  1.70000000E+00  1.70000000E+00  1.30000000E+00  1.70000000E+00  1.30000000E+00
  1.30000000E+00  1.30000000E+00  1.70000000E+00  1.70000000E+00  1.70000000E+00
  1.70000000E+00  1.70000000E+00  1.30000000E+00  1.70000000E+00  1.70000000E+00
  1.70000000E+00  1.70000000E+00  1.70000000E+00  1.30000000E+00  1.30000000E+00
  1.70000000E+00  1.30000000E+00  1.70000000E+00  1.70000000E+00  1.30000000E+00
  1.30000000E+00  1.30000000E+00  1.70000000E+00  1.70000000E+00  1.30000000E+00
  1.70000000E+00  1.70000000E+00  1.30000000E+00  1.70000000E+00  1.70000000E+00
  1.30000000E+00  1.70000000E+00  1.70000000E+00  1.30000000E+00  1.70000000E+00
  1.30000000E+00  1.30000000E+00  1.30000000E+00  1.70000000E+00  1.70000000E+00
  1.70000000E+00  1.70000000E+00  1.70000000E+00  1.30000000E+00  1.70000000E+00
  1.70000000E+00  1.70000000E+00  1.70000000E+00  1.70000000E+00  1.30000000E+00
  1.30000000E+00  1.70000000E+00  1.30000000E+00  1.70000000E+00  1.70000000E+00
  1.30000000E+00  1.30000000E+00  1.30000000E+00  1.70000000E+00  1.70000000E+00
  1.30000000E+00  1.70000000E+00  1.70000000E+00  1.30000000E+00  1.70000000E+00
  1.70000000E+00  1.30000000E+00  1.70000000E+00  1.70000000E+00  1.30000000E+00
  1.70000000E+00  1.30000000E+00  1.30000000E+00  1.30000000E+00  1.70000000E+00
  1.70000000E+00  1.70000000E+00  1.70000000E+00  1.70000000E+00  1.30000000E+00
  1.70000000E+00  1.70000000E+00  1.70000000E+00  1.70000000E+00  1.70000000E+00
  1.30000000E+00  1.30000000E+00  1.70000000E+00  1.30000000E+00  1.70000000E+00
  1.70000000E+00  1.30000000E+00  1.30000000E+00  1.30000000E+00  1.70000000E+00
  1.70000000E+00  1.30000000E+00  1.70000000E+00  1.70000000E+00  1.30000000E+00
  1.70000000E+00  1.70000000E+00  1.30000000E+00  1.70000000E+00  1.70000000E+00
  1.30000000E+00  1.70000000E+00  1.30000000E+00  1.30000000E+00  1.30000000E+00
  1.70000000E+00  1.70000000E+00  1.70000000E+00  1.70000000E+00  1.70000000E+00
  1.30000000E+00  1.70000000E+00  1.70000000E+00  1.70000000E+00  1.70000000E+00
  1.70000000E+00  1.30000000E+00  1.30000000E+00  1.70000000E+00  1.30000000E+00
  1.70000000E+00  1.70000000E+00  1.30000000E+00  1.30000000E+00  1.30000000E+00
  1.70000000E+00  1.70000000E+00  1.30000000E+00  1.70000000E+00  1.70000000E+00
  1.30000000E+00  1.70000000E+00  1.70000000E+00  1.30000000E+00  1.70000000E+00
  1.70000000E+00  1.30000000E+00  1.70000000E+00  1.30000000E+00  1.30000000E+00
  1.30000000E+00  1.70000000E+00  1.70000000E+00  1.70000000E+00  1.70000000E+00
  1.70000000E+00  1.30000000E+00  1.70000000E+00  1.70000000E+00  1.70000000E+00
  1.70000000E+00  1.70000000E+00  1.30000000E+00  1.30000000E+00  1.70000000E+00
  1.30000000E+00  1.70000000E+00  1.70000000E+00  1.30000000E+00  1.30000000E+00
  1.30000000E+00  1.70000000E+00  1.70000000E+00  1.30000000E+00  1.70000000E+00
  1.70000000E+00  1.30000000E+00  1.70000000E+00  1.70000000E+00  1.30000000E+00
  1.70000000E+00  1.70000000E+00  1.30000000E+00  1.70000000E+00  1.30000000E+00
  1.30000000E+00  1.30000000E+00  1.70000000E+00  1.70000000E+00  1.70000000E+00
  1.70000000E+00  1.70000000E+00  1.30000000E+00  1.70000000E+00  1.70000000E+00
  1.70000000E+00  1.70000000E+00  1.70000000E+00  1.30000000E+00  1.30000000E+00
  1.70000000E+00  1.30000000E+00  1.70000000E+00  1.70000000E+00  1.30000000E+00
  1.30000000E+00  1.30000000E+00  1.70000000E+00  1.70000000E+00  1.30000000E+00
  1.70000000E+00  1.70000000E+00  1.30000000E+00  1.70000000E+00  1.70000000E+00
  1.30000000E+00  1.70000000E+00  1.70000000E+00  1.30000000E+00  1.70000000E+00
  1.30000000E+00  1.30000000E+00  1.30000000E+00  1.70000000E+00  1.70000000E+00
  1.70000000E+00  1.70000000E+00  1.70000000E+00  1.30000000E+00  1.70000000E+00
  1.70000000E+00  1.70000000E+00  1.70000000E+00  1.70000000E+00  1.30000000E+00
  1.30000000E+00  1.70000000E+00  1.30000000E+00  1.70000000E+00  1.70000000E+00
  1.30000000E+00  1.30000000E+00  1.30000000E+00  1.70000000E+00  1.70000000E+00
  1.30000000E+00  1.70000000E+00  1.70000000E+00  1.30000000E+00  1.70000000E+00
  1.70000000E+00  1.30000000E+00  1.70000000E+00  1.70000000E+00  1.30000000E+00
  1.70000000E+00  1.30000000E+00  1.30000000E+00  1.30000000E+00  1.70000000E+00
  1.70000000E+00  1.70000000E+00  1.70000000E+00  1.70000000E+00  1.30000000E+00
  1.70000000E+00  1.70000000E+00  1.70000000E+00  1.70000000E+00  1.70000000E+00
  1.30000000E+00  1.30000000E+00  1.70000000E+00  1.30000000E+00  1.70000000E+00
  1.70000000E+00  1.30000000E+00  1.30000000E+00  1.30000000E+00  1.70000000E+00
  1.70000000E+00  1.30000000E+00  1.70000000E+00  1.70000000E+00  1.30000000E+00
  1.70000000E+00  1.70000000E+00  1.30000000E+00  1.70000000E+00  1.70000000E+00
  1.30000000E+00  1.70000000E+00  1.30000000E+00  1.30000000E+00  1.30000000E+00
  1.70000000E+00  1.70000000E+00  1.70000000E+00  1.70000000E+00  1.70000000E+00
  1.30000000E+00  1.70000000E+00  1.70000000E+00  1.70000000E+00  1.70000000E+00
  1.70000000E+00  1.30000000E+00  1.30000000E+00  1.70000000E+00  1.30000000E+00
  1.70000000E+00  1.70000000E+00  1.30000000E+00  1.30000000E+00  1.30000000E+00
  1.70000000E+00  1.70000000E+00  1.30000000E+00  1.70000000E+00  1.70000000E+00
  1.30000000E+00  1.70000000E+00  1.70000000E+00  1.30000000E+00  1.70000000E+00
  1.70000000E+00  1.30000000E+00  1.70000000E+00  1.30000000E+00  1.30000000E+00
  1.30000000E+00  1.70000000E+00  1.70000000E+00  1.70000000E+00  1.70000000E+00
  1.70000000E+00  1.30000000E+00  1.70000000E+00  1.70000000E+00  1.70000000E+00
  1.70000000E+00  1.70000000E+00  1.30000000E+00  1.30000000E+00  1.70000000E+00
  1.30000000E+00  1.70000000E+00  1.70000000E+00  1.30000000E+00  1.30000000E+00
  1.30000000E+00  1.70000000E+00  1.70000000E+00  1.30000000E+00  1.70000000E+00
  1.70000000E+00  1.30000000E+00  1.70000000E+00  1.70000000E+00  1.30000000E+00
  1.70000000E+00  1.70000000E+00  1.30000000E+00  1.70000000E+00  1.30000000E+00
  1.30000000E+00  1.30000000E+00  1.70000000E+00  1.70000000E+00  1.70000000E+00
  1.70000000E+00  1.70000000E+00  1.30000000E+00  1.70000000E+00  1.70000000E+00
  1.70000000E+00  1.70000000E+00  1.70000000E+00  1.30000000E+00  1.30000000E+00
  1.70000000E+00  1.30000000E+00  1.70000000E+00  1.70000000E+00  1.30000000E+00
  1.30000000E+00  1.30000000E+00  1.70000000E+00  1.70000000E+00  1.30000000E+00
  1.70000000E+00  1.70000000E+00  1.30000000E+00  1.70000000E+00  1.70000000E+00
  1.30000000E+00  1.70000000E+00  1.70000000E+00  1.30000000E+00  1.70000000E+00
  1.30000000E+00  1.30000000E+00  1.30000000E+00  1.70000000E+00  1.70000000E+00
  1.70000000E+00  1.70000000E+00  1.70000000E+00  1.30000000E+00  1.70000000E+00
  1.70000000E+00  1.70000000E+00  1.70000000E+00  1.70000000E+00  1.30000000E+00
  1.30000000E+00  1.70000000E+00  1.30000000E+00  1.70000000E+00  1.70000000E+00
  1.30000000E+00  1.30000000E+00  1.30000000E+00  1.70000000E+00  1.70000000E+00
  1.30000000E+00  1.70000000E+00  1.70000000E+00  1.30000000E+00  1.70000000E+00
  1.70000000E+00  1.30000000E+00  1.70000000E+00  1.70000000E+00  1.30000000E+00
  1.70000000E+00  1.30000000E+00  1.30000000E+00  1.30000000E+00  1.70000000E+00
  1.70000000E+00  1.70000000E+00  1.70000000E+00  1.70000000E+00  1.30000000E+00
  1.70000000E+00  1.70000000E+00  1.70000000E+00  1.70000000E+00  1.70000000E+00
  1.30000000E+00  1.30000000E+00  1.70000000E+00  1.30000000E+00  1.70000000E+00
  1.70000000E+00  1.30000000E+00  1.30000000E+00  1.30000000E+00  1.70000000E+00
  1.70000000E+00  1.30000000E+00  1.70000000E+00  1.70000000E+00  1.30000000E+00
  1.70000000E+00  1.70000000E+00  1.30000000E+00  1.70000000E+00  1.70000000E+00
  1.30000000E+00  1.70000000E+00  1.30000000E+00  1.30000000E+00  1.30000000E+00
  1.70000000E+00  1.70000000E+00  1.70000000E+00  1.70000000E+00  1.70000000E+00
  1.30000000E+00  1.70000000E+00  1.70000000E+00  1.70000000E+00  1.70000000E+00
  1.70000000E+00  1.30000000E+00  1.30000000E+00  1.70000000E+00  1.30000000E+00
  1.70000000E+00  1.70000000E+00  1.30000000E+00  1.30000000E+00  1.30000000E+00
  1.70000000E+00  1.70000000E+00  1.30000000E+00  1.70000000E+00  1.70000000E+00
  1.30000000E+00  1.70000000E+00  1.70000000E+00  1.30000000E+00  1.70000000E+00
  1.70000000E+00  1.30000000E+00  1.70000000E+00  1.30000000E+00  1.30000000E+00
  1.30000000E+00  1.70000000E+00  1.70000000E+00  1.70000000E+00  1.70000000E+00
  1.70000000E+00  1.30000000E+00  1.70000000E+00  1.70000000E+00  1.70000000E+00
  1.70000000E+00  1.70000000E+00  1.30000000E+00  1.30000000E+00  1.70000000E+00
  1.30000000E+00  1.70000000E+00  1.70000000E+00  1.30000000E+00  1.30000000E+00
  1.30000000E+00  1.70000000E+00  1.70000000E+00  1.30000000E+00  1.70000000E+00
  1.70000000E+00  1.30000000E+00  1.70000000E+00  1.70000000E+00  1.30000000E+00
  1.70000000E+00  1.70000000E+00  1.30000000E+00  1.70000000E+00  1.30000000E+00
  1.30000000E+00  1.30000000E+00  1.70000000E+00  1.70000000E+00  1.70000000E+00
  1.70000000E+00  1.70000000E+00  1.30000000E+00  1.70000000E+00  1.70000000E+00
  1.70000000E+00  1.70000000E+00  1.70000000E+00  1.30000000E+00  1.30000000E+00
  1.70000000E+00  1.30000000E+00  1.70000000E+00  1.70000000E+00  1.30000000E+00
  1.30000000E+00  1.30000000E+00  1.70000000E+00  1.70000000E+00  1.30000000E+00
  1.70000000E+00  1.70000000E+00  1.30000000E+00  1.70000000E+00  1.70000000E+00
  1.30000000E+00  1.70000000E+00  1.70000000E+00  1.30000000E+00  1.70000000E+00
  1.30000000E+00  1.30000000E+00  1.30000000E+00  1.70000000E+00  1.70000000E+00
  1.70000000E+00  1.70000000E+00  1.70000000E+00  1.30000000E+00  1.70000000E+00
  1.70000000E+00  1.70000000E+00  1.70000000E+00  1.70000000E+00  1.30000000E+00
  1.30000000E+00  1.70000000E+00  1.30000000E+00  1.70000000E+00  1.70000000E+00
  1.30000000E+00  1.30000000E+00  1.30000000E+00  1.70000000E+00  1.70000000E+00
  1.30000000E+00  1.70000000E+00  1.70000000E+00  1.30000000E+00  1.70000000E+00
  1.70000000E+00  1.30000000E+00  1.70000000E+00  1.70000000E+00  1.30000000E+00
  1.70000000E+00  1.30000000E+00  1.30000000E+00  1.30000000E+00  1.70000000E+00
  1.70000000E+00  1.70000000E+00  1.70000000E+00  1.70000000E+00  1.30000000E+00
  1.70000000E+00  1.70000000E+00  1.70000000E+00  1.70000000E+00  1.70000000E+00
  1.30000000E+00  1.30000000E+00  1.70000000E+00  1.30000000E+00  1.70000000E+00
  1.70000000E+00  1.30000000E+00  1.30000000E+00  1.30000000E+00  1.70000000E+00
  1.70000000E+00  1.30000000E+00  1.70000000E+00  1.70000000E+00  1.30000000E+00
  1.70000000E+00  1.70000000E+00  1.30000000E+00  1.70000000E+00  1.70000000E+00
  1.30000000E+00  1.70000000E+00  1.30000000E+00  1.30000000E+00  1.30000000E+00
  1.70000000E+00  1.70000000E+00  1.70000000E+00  1.70000000E+00  1.70000000E+00
  1.30000000E+00  1.70000000E+00  1.70000000E+00  1.70000000E+00  1.70000000E+00
  1.70000000E+00  1.30000000E+00  1.30000000E+00  1.70000000E+00  1.30000000E+00
  1.70000000E+00  1.70000000E+00  1.30000000E+00  1.30000000E+00  1.30000000E+00
  1.70000000E+00  1.70000000E+00  1.30000000E+00  1.70000000E+00  1.70000000E+00
  1.30000000E+00  1.70000000E+00  1.70000000E+00  1.30000000E+00  1.70000000E+00
  1.70000000E+00  1.30000000E+00  1.70000000E+00  1.30000000E+00  1.30000000E+00
  1.30000000E+00  1.70000000E+00  1.70000000E+00  1.70000000E+00  1.70000000E+00
  1.70000000E+00  1.30000000E+00  1.70000000E+00  1.70000000E+00  1.70000000E+00
  1.70000000E+00  1.70000000E+00  1.30000000E+00  1.30000000E+00  1.70000000E+00
  1.30000000E+00  1.70000000E+00  1.70000000E+00  1.30000000E+00  1.30000000E+00
  1.30000000E+00  1.70000000E+00  1.70000000E+00  1.30000000E+00  1.70000000E+00
  1.70000000E+00  1.30000000E+00  1.70000000E+00  1.70000000E+00  1.30000000E+00
  1.70000000E+00  1.70000000E+00  1.30000000E+00  1.70000000E+00  1.30000000E+00
  1.30000000E+00  1.30000000E+00  1.70000000E+00  1.70000000E+00  1.70000000E+00
  1.70000000E+00  1.70000000E+00  1.30000000E+00  1.70000000E+00  1.70000000E+00
  1.70000000E+00  1.70000000E+00  1.70000000E+00  1.30000000E+00  1.30000000E+00
  1.70000000E+00  1.30000000E+00  1.70000000E+00  1.70000000E+00  1.30000000E+00
  1.30000000E+00  1.30000000E+00  1.70000000E+00  1.70000000E+00  1.30000000E+00
  1.70000000E+00  1.70000000E+00  1.30000000E+00  1.70000000E+00  1.70000000E+00
  1.30000000E+00  1.70000000E+00  1.70000000E+00  1.30000000E+00  1.70000000E+00
  1.30000000E+00  1.30000000E+00  1.30000000E+00  1.70000000E+00  1.70000000E+00
  1.70000000E+00  1.70000000E+00  1.70000000E+00  1.30000000E+00  1.70000000E+00
  1.70000000E+00  1.70000000E+00  1.70000000E+00  1.70000000E+00  1.30000000E+00
  1.30000000E+00  1.70000000E+00  1.30000000E+00  1.70000000E+00  1.70000000E+00
  1.30000000E+00  1.30000000E+00  1.30000000E+00  1.70000000E+00  1.70000000E+00
  1.30000000E+00  1.70000000E+00  1.70000000E+00  1.30000000E+00  1.70000000E+00
  1.70000000E+00  1.30000000E+00  1.70000000E+00  1.70000000E+00  1.30000000E+00
  1.70000000E+00  1.30000000E+00  1.30000000E+00  1.30000000E+00  1.70000000E+00
  1.70000000E+00  1.70000000E+00  1.70000000E+00  1.70000000E+00  1.30000000E+00
  1.70000000E+00  1.70000000E+00  1.70000000E+00  1.70000000E+00  1.70000000E+00
  1.30000000E+00  1.30000000E+00  1.70000000E+00  1.30000000E+00  1.70000000E+00
  1.70000000E+00  1.30000000E+00  1.30000000E+00  1.30000000E+00  1.70000000E+00
  1.70000000E+00  1.30000000E+00  1.70000000E+00  1.70000000E+00  1.30000000E+00
  1.70000000E+00  1.70000000E+00  1.30000000E+00  1.70000000E+00  1.70000000E+00
  1.30000000E+00  1.70000000E+00  1.30000000E+00  1.30000000E+00  1.30000000E+00
  1.70000000E+00  1.70000000E+00  1.70000000E+00  1.70000000E+00  1.70000000E+00
  1.30000000E+00  1.70000000E+00  1.70000000E+00  1.70000000E+00  1.70000000E+00
  1.70000000E+00  1.30000000E+00  1.30000000E+00  1.70000000E+00  1.30000000E+00
  1.70000000E+00  1.70000000E+00  1.30000000E+00  1.30000000E+00  1.30000000E+00
  1.70000000E+00  1.70000000E+00  1.30000000E+00  1.70000000E+00  1.70000000E+00
  1.30000000E+00  1.70000000E+00  1.70000000E+00  1.30000000E+00  1.70000000E+00
  1.70000000E+00  1.30000000E+00  1.70000000E+00  1.30000000E+00  1.30000000E+00
  1.30000000E+00  1.70000000E+00  1.70000000E+00  1.70000000E+00  1.70000000E+00
  1.70000000E+00  1.30000000E+00  1.70000000E+00  1.70000000E+00  1.70000000E+00
  1.70000000E+00  1.70000000E+00  1.30000000E+00  1.30000000E+00  1.70000000E+00
  1.30000000E+00  1.70000000E+00  1.70000000E+00  1.30000000E+00  1.30000000E+00
  1.30000000E+00  1.70000000E+00  1.70000000E+00  1.30000000E+00  1.70000000E+00
  1.70000000E+00  1.30000000E+00  1.70000000E+00  1.70000000E+00  1.30000000E+00
  1.70000000E+00  1.70000000E+00  1.30000000E+00  1.70000000E+00  1.30000000E+00
  1.30000000E+00  1.30000000E+00  1.70000000E+00  1.70000000E+00  1.70000000E+00
  1.70000000E+00  1.70000000E+00  1.30000000E+00  1.70000000E+00  1.70000000E+00
  1.70000000E+00  1.70000000E+00  1.70000000E+00  1.30000000E+00  1.30000000E+00
  1.70000000E+00  1.30000000E+00  1.70000000E+00  1.70000000E+00  1.30000000E+00
  1.30000000E+00  1.30000000E+00  1.70000000E+00  1.70000000E+00  1.30000000E+00
  1.70000000E+00  1.70000000E+00  1.30000000E+00  1.70000000E+00  1.70000000E+00
  1.30000000E+00  1.70000000E+00  1.70000000E+00  1.30000000E+00  1.70000000E+00
  1.30000000E+00  1.30000000E+00  1.30000000E+00  1.70000000E+00  1.70000000E+00
  1.70000000E+00  1.70000000E+00  1.70000000E+00  1.30000000E+00  1.70000000E+00
  1.70000000E+00  1.70000000E+00  1.70000000E+00  1.70000000E+00  1.30000000E+00
  1.30000000E+00  1.70000000E+00  1.30000000E+00  1.70000000E+00  1.70000000E+00
  1.30000000E+00  1.30000000E+00  1.30000000E+00  1.70000000E+00  1.70000000E+00
  1.30000000E+00  1.70000000E+00  1.70000000E+00  1.30000000E+00  1.70000000E+00
  1.70000000E+00  1.30000000E+00  1.70000000E+00  1.70000000E+00  1.30000000E+00
  1.70000000E+00  1.30000000E+00  1.30000000E+00  1.30000000E+00  1.70000000E+00
  1.70000000E+00  1.70000000E+00  1.70000000E+00  1.70000000E+00  1.30000000E+00
  1.70000000E+00  1.70000000E+00  1.70000000E+00  1.70000000E+00  1.70000000E+00
  1.30000000E+00  1.30000000E+00  1.70000000E+00  1.30000000E+00  1.70000000E+00
  1.70000000E+00  1.30000000E+00  1.30000000E+00  1.30000000E+00  1.70000000E+00
  1.70000000E+00  1.30000000E+00  1.70000000E+00  1.70000000E+00  1.30000000E+00
  1.70000000E+00  1.70000000E+00  1.30000000E+00  1.70000000E+00  1.70000000E+00
  1.30000000E+00  1.70000000E+00  1.30000000E+00  1.30000000E+00  1.30000000E+00
  1.70000000E+00  1.70000000E+00  1.70000000E+00  1.70000000E+00  1.70000000E+00
  1.30000000E+00  1.70000000E+00  1.70000000E+00  1.70000000E+00  1.70000000E+00
  1.70000000E+00  1.30000000E+00  1.30000000E+00  1.70000000E+00  1.30000000E+00
  1.70000000E+00  1.70000000E+00  1.30000000E+00  1.30000000E+00  1.30000000E+00
  1.70000000E+00  1.70000000E+00  1.30000000E+00  1.70000000E+00  1.70000000E+00
  1.30000000E+00  1.70000000E+00  1.70000000E+00  1.30000000E+00  1.70000000E+00
  1.70000000E+00  1.30000000E+00  1.70000000E+00  1.30000000E+00  1.30000000E+00
  1.30000000E+00  1.70000000E+00  1.70000000E+00  1.70000000E+00  1.70000000E+00
  1.70000000E+00  1.30000000E+00  1.70000000E+00  1.70000000E+00  1.70000000E+00
  1.70000000E+00  1.70000000E+00  1.30000000E+00  1.30000000E+00  1.70000000E+00
  1.30000000E+00  1.70000000E+00  1.70000000E+00  1.30000000E+00  1.30000000E+00
  1.30000000E+00  1.70000000E+00  1.70000000E+00  1.30000000E+00  1.70000000E+00
  1.70000000E+00  1.30000000E+00  1.70000000E+00  1.70000000E+00  1.30000000E+00
  1.70000000E+00  1.70000000E+00  1.30000000E+00  1.70000000E+00  1.30000000E+00
  1.30000000E+00  1.30000000E+00  1.70000000E+00  1.70000000E+00  1.70000000E+00
  1.70000000E+00  1.70000000E+00  1.30000000E+00  1.70000000E+00  1.70000000E+00
  1.70000000E+00  1.70000000E+00  1.70000000E+00  1.30000000E+00  1.30000000E+00
  1.70000000E+00  1.30000000E+00  1.70000000E+00  1.70000000E+00  1.30000000E+00
  1.30000000E+00  1.30000000E+00  1.70000000E+00  1.70000000E+00  1.30000000E+00
  1.70000000E+00  1.70000000E+00  1.30000000E+00  1.70000000E+00  1.70000000E+00
  1.30000000E+00  1.70000000E+00  1.70000000E+00  1.30000000E+00  1.70000000E+00
  1.30000000E+00  1.30000000E+00  1.30000000E+00  1.70000000E+00  1.70000000E+00
  1.70000000E+00  1.70000000E+00  1.70000000E+00  1.30000000E+00  1.70000000E+00
  1.70000000E+00  1.70000000E+00  1.70000000E+00  1.70000000E+00  1.30000000E+00
  1.30000000E+00  1.70000000E+00  1.30000000E+00  1.70000000E+00  1.70000000E+00
  1.30000000E+00  1.30000000E+00  1.30000000E+00  1.70000000E+00  1.70000000E+00
  1.30000000E+00  1.70000000E+00  1.70000000E+00  1.30000000E+00  1.70000000E+00
  1.70000000E+00  1.30000000E+00  1.70000000E+00  1.70000000E+00  1.30000000E+00
  1.70000000E+00  1.30000000E+00  1.30000000E+00  1.30000000E+00  1.70000000E+00
  1.70000000E+00  1.70000000E+00  1.70000000E+00  1.70000000E+00  1.30000000E+00
  1.70000000E+00  1.70000000E+00  1.70000000E+00  1.70000000E+00  1.70000000E+00
  1.30000000E+00  1.30000000E+00  1.70000000E+00  1.30000000E+00  1.70000000E+00
  1.70000000E+00  1.30000000E+00  1.30000000E+00  1.30000000E+00  1.70000000E+00
  1.70000000E+00  1.30000000E+00  1.70000000E+00  1.70000000E+00  1.30000000E+00
  1.70000000E+00  1.70000000E+00  1.30000000E+00  1.70000000E+00  1.70000000E+00
  1.30000000E+00  1.70000000E+00  1.30000000E+00  1.30000000E+00  1.30000000E+00
  1.70000000E+00  1.70000000E+00  1.70000000E+00  1.70000000E+00  1.70000000E+00
  1.30000000E+00  1.70000000E+00  1.70000000E+00  1.70000000E+00  1.70000000E+00
  1.70000000E+00  1.30000000E+00  1.30000000E+00  1.70000000E+00  1.30000000E+00
  1.70000000E+00  1.70000000E+00  1.30000000E+00  1.30000000E+00  1.30000000E+00
  1.70000000E+00  1.70000000E+00  1.30000000E+00  1.70000000E+00  1.70000000E+00
  1.30000000E+00  1.70000000E+00  1.70000000E+00  1.30000000E+00  1.70000000E+00
  1.70000000E+00  1.30000000E+00  1.70000000E+00  1.30000000E+00  1.30000000E+00
  1.30000000E+00  1.70000000E+00  1.70000000E+00  1.70000000E+00  1.70000000E+00
  1.70000000E+00  1.30000000E+00  1.70000000E+00  1.70000000E+00  1.70000000E+00
  1.70000000E+00  1.70000000E+00  1.30000000E+00  1.30000000E+00  1.70000000E+00
  1.30000000E+00  1.70000000E+00  1.70000000E+00  1.30000000E+00  1.30000000E+00
  1.30000000E+00  1.70000000E+00  1.70000000E+00  1.30000000E+00  1.70000000E+00
  1.70000000E+00  1.30000000E+00  1.70000000E+00  1.70000000E+00  1.30000000E+00
  1.70000000E+00  1.70000000E+00  1.30000000E+00  1.70000000E+00  1.30000000E+00
  1.30000000E+00  1.30000000E+00  1.70000000E+00  1.70000000E+00  1.70000000E+00
  1.70000000E+00  1.70000000E+00  1.30000000E+00  1.70000000E+00  1.70000000E+00
  1.70000000E+00  1.70000000E+00  1.70000000E+00  1.30000000E+00  1.30000000E+00
  1.70000000E+00  1.30000000E+00  1.70000000E+00  1.70000000E+00  1.30000000E+00
  1.30000000E+00  1.30000000E+00  1.70000000E+00  1.70000000E+00  1.30000000E+00
  1.70000000E+00  1.70000000E+00  1.30000000E+00  1.70000000E+00  1.70000000E+00
  1.30000000E+00  1.70000000E+00  1.70000000E+00  1.30000000E+00  1.70000000E+00
  1.30000000E+00  1.30000000E+00  1.30000000E+00  1.70000000E+00  1.70000000E+00
  1.70000000E+00  1.70000000E+00  1.70000000E+00  1.30000000E+00  1.70000000E+00
  1.70000000E+00  1.70000000E+00  1.70000000E+00  1.70000000E+00  1.30000000E+00
  1.30000000E+00  1.70000000E+00  1.30000000E+00  1.70000000E+00  1.70000000E+00
  1.30000000E+00  1.30000000E+00  1.30000000E+00  1.70000000E+00  1.70000000E+00
  1.30000000E+00  1.70000000E+00  1.70000000E+00  1.30000000E+00  1.70000000E+00
  1.70000000E+00  1.30000000E+00  1.70000000E+00  1.70000000E+00  1.30000000E+00
  1.70000000E+00  1.30000000E+00  1.30000000E+00  1.30000000E+00  1.70000000E+00
  1.70000000E+00  1.70000000E+00  1.70000000E+00  1.70000000E+00  1.30000000E+00
  1.70000000E+00  1.70000000E+00  1.70000000E+00  1.70000000E+00  1.70000000E+00
  1.30000000E+00  1.30000000E+00  1.70000000E+00  1.30000000E+00  1.70000000E+00
  1.70000000E+00  1.30000000E+00  1.30000000E+00  1.30000000E+00  1.70000000E+00
  1.70000000E+00  1.30000000E+00  1.70000000E+00  1.70000000E+00  1.30000000E+00
  1.70000000E+00  1.70000000E+00  1.30000000E+00  1.70000000E+00  1.70000000E+00
  1.30000000E+00  1.70000000E+00  1.30000000E+00  1.30000000E+00  1.30000000E+00
  1.70000000E+00  1.70000000E+00  1.70000000E+00  1.70000000E+00  1.70000000E+00
  1.30000000E+00  1.70000000E+00  1.70000000E+00  1.70000000E+00  1.70000000E+00
  1.70000000E+00  1.30000000E+00  1.30000000E+00  1.70000000E+00  1.30000000E+00
  1.70000000E+00  1.70000000E+00  1.30000000E+00  1.30000000E+00  1.30000000E+00
  1.70000000E+00  1.70000000E+00  1.30000000E+00  1.70000000E+00  1.70000000E+00
  1.30000000E+00  1.70000000E+00  1.70000000E+00  1.30000000E+00  1.70000000E+00
  1.70000000E+00  1.30000000E+00  1.70000000E+00  1.30000000E+00  1.30000000E+00
  1.30000000E+00  1.70000000E+00  1.70000000E+00  1.70000000E+00  1.70000000E+00
  1.70000000E+00  1.30000000E+00  1.70000000E+00  1.70000000E+00  1.70000000E+00
  1.70000000E+00  1.70000000E+00  1.30000000E+00  1.30000000E+00  1.70000000E+00
  1.30000000E+00  1.70000000E+00  1.70000000E+00  1.30000000E+00  1.30000000E+00
  1.30000000E+00  1.70000000E+00  1.70000000E+00  1.30000000E+00  1.70000000E+00
  1.70000000E+00  1.30000000E+00  1.70000000E+00  1.70000000E+00  1.30000000E+00
  1.70000000E+00  1.70000000E+00  1.30000000E+00  1.70000000E+00  1.30000000E+00
  1.30000000E+00  1.30000000E+00  1.70000000E+00  1.70000000E+00  1.70000000E+00
  1.70000000E+00  1.70000000E+00  1.30000000E+00  1.70000000E+00  1.70000000E+00
  1.70000000E+00  1.70000000E+00  1.70000000E+00  1.30000000E+00  1.30000000E+00
  1.70000000E+00  1.30000000E+00  1.70000000E+00  1.70000000E+00  1.30000000E+00
  1.30000000E+00  1.30000000E+00  1.70000000E+00  1.70000000E+00  1.30000000E+00
  1.70000000E+00  1.70000000E+00  1.30000000E+00  1.70000000E+00  1.70000000E+00
  1.30000000E+00  1.70000000E+00  1.70000000E+00  1.30000000E+00  1.70000000E+00
  1.30000000E+00  1.30000000E+00  1.30000000E+00  1.70000000E+00  1.70000000E+00
  1.70000000E+00  1.70000000E+00  1.70000000E+00  1.30000000E+00  1.70000000E+00
  1.70000000E+00  1.70000000E+00  1.70000000E+00  1.70000000E+00  1.30000000E+00
  1.30000000E+00  1.70000000E+00  1.30000000E+00  1.70000000E+00  1.70000000E+00
  1.30000000E+00  1.30000000E+00  1.30000000E+00  1.70000000E+00  1.70000000E+00
  1.30000000E+00  1.70000000E+00  1.70000000E+00  1.30000000E+00  1.70000000E+00
  1.70000000E+00  1.30000000E+00  1.70000000E+00  1.70000000E+00  1.30000000E+00
  1.70000000E+00  1.30000000E+00  1.30000000E+00  1.30000000E+00  1.70000000E+00
  1.70000000E+00  1.70000000E+00  1.70000000E+00  1.70000000E+00  1.30000000E+00
  1.70000000E+00  1.70000000E+00  1.70000000E+00  1.70000000E+00  1.70000000E+00
  1.30000000E+00  1.30000000E+00  1.70000000E+00  1.30000000E+00  1.70000000E+00
  1.70000000E+00  1.30000000E+00  1.30000000E+00  1.30000000E+00  1.70000000E+00
  1.70000000E+00  1.30000000E+00  1.70000000E+00  1.70000000E+00  1.30000000E+00
  1.70000000E+00  1.70000000E+00  1.30000000E+00  1.70000000E+00  1.70000000E+00
  1.30000000E+00  1.70000000E+00  1.30000000E+00  1.30000000E+00  1.30000000E+00
  1.70000000E+00  1.70000000E+00  1.70000000E+00  1.70000000E+00  1.70000000E+00
  1.30000000E+00  1.70000000E+00  1.70000000E+00  1.70000000E+00  1.70000000E+00
  1.70000000E+00  1.30000000E+00  1.30000000E+00  1.70000000E+00  1.30000000E+00
  1.70000000E+00  1.70000000E+00  1.30000000E+00  1.30000000E+00  1.30000000E+00
  1.70000000E+00  1.70000000E+00  1.30000000E+00  1.70000000E+00  1.70000000E+00
  1.30000000E+00  1.70000000E+00  1.70000000E+00  1.30000000E+00  1.70000000E+00
  1.70000000E+00  1.30000000E+00  1.70000000E+00  1.30000000E+00  1.30000000E+00
  1.30000000E+00  1.70000000E+00  1.70000000E+00  1.70000000E+00  1.70000000E+00
  1.70000000E+00  1.30000000E+00  1.70000000E+00  1.70000000E+00  1.70000000E+00
  1.70000000E+00  1.70000000E+00  1.30000000E+00  1.30000000E+00  1.70000000E+00
  1.30000000E+00  1.70000000E+00  1.70000000E+00  1.30000000E+00  1.30000000E+00
  1.30000000E+00  1.70000000E+00  1.70000000E+00  1.30000000E+00  1.70000000E+00
  1.70000000E+00  1.30000000E+00  1.70000000E+00  1.70000000E+00  1.30000000E+00
  1.70000000E+00  1.70000000E+00  1.30000000E+00  1.70000000E+00  1.30000000E+00
  1.30000000E+00  1.30000000E+00  1.70000000E+00  1.70000000E+00  1.70000000E+00
  1.70000000E+00  1.70000000E+00  1.30000000E+00  1.70000000E+00  1.70000000E+00
  1.70000000E+00  1.70000000E+00  1.70000000E+00  1.30000000E+00  1.30000000E+00
  1.70000000E+00  1.30000000E+00  1.70000000E+00  1.70000000E+00  1.30000000E+00
  1.30000000E+00  1.30000000E+00  1.70000000E+00  1.70000000E+00  1.30000000E+00
  1.70000000E+00  1.70000000E+00  1.30000000E+00  1.70000000E+00  1.70000000E+00
  1.30000000E+00  1.70000000E+00  1.70000000E+00  1.30000000E+00  1.70000000E+00
  1.30000000E+00  1.30000000E+00  1.30000000E+00  1.70000000E+00  1.70000000E+00
  1.70000000E+00  1.70000000E+00  1.70000000E+00  1.30000000E+00  1.70000000E+00
  1.70000000E+00  1.70000000E+00  1.70000000E+00  1.70000000E+00  1.30000000E+00
  1.30000000E+00  1.70000000E+00  1.30000000E+00  1.70000000E+00  1.70000000E+00
  1.30000000E+00  1.30000000E+00  1.30000000E+00  1.70000000E+00  1.70000000E+00
  1.30000000E+00  1.70000000E+00  1.70000000E+00  1.30000000E+00  1.70000000E+00
  1.70000000E+00  1.30000000E+00  1.70000000E+00  1.70000000E+00  1.30000000E+00
  1.70000000E+00  1.30000000E+00  1.30000000E+00  1.30000000E+00  1.70000000E+00
  1.70000000E+00  1.70000000E+00  1.70000000E+00  1.70000000E+00  1.30000000E+00
  1.70000000E+00  1.70000000E+00  1.70000000E+00  1.70000000E+00  1.70000000E+00
  1.30000000E+00  1.30000000E+00  1.70000000E+00  1.30000000E+00  1.70000000E+00
  1.70000000E+00  1.30000000E+00  1.30000000E+00  1.30000000E+00  1.70000000E+00
  1.70000000E+00  1.30000000E+00  1.70000000E+00  1.70000000E+00  1.30000000E+00
  1.70000000E+00  1.70000000E+00  1.30000000E+00  1.70000000E+00  1.70000000E+00
  1.30000000E+00  1.70000000E+00  1.30000000E+00  1.30000000E+00  1.30000000E+00
  1.70000000E+00  1.70000000E+00  1.70000000E+00  1.70000000E+00  1.70000000E+00
  1.30000000E+00  1.70000000E+00  1.70000000E+00  1.70000000E+00  1.70000000E+00
  1.70000000E+00  1.30000000E+00  1.30000000E+00  1.70000000E+00  1.30000000E+00
  1.70000000E+00  1.70000000E+00  1.30000000E+00  1.30000000E+00  1.30000000E+00
  1.70000000E+00  1.70000000E+00  1.30000000E+00  1.70000000E+00  1.70000000E+00
  1.30000000E+00  1.70000000E+00  1.70000000E+00  1.30000000E+00  1.70000000E+00
  1.70000000E+00  1.30000000E+00  1.70000000E+00  1.30000000E+00  1.30000000E+00
  1.30000000E+00  1.70000000E+00  1.70000000E+00  1.70000000E+00  1.70000000E+00
  1.70000000E+00  1.30000000E+00  1.70000000E+00  1.70000000E+00  1.70000000E+00
  1.70000000E+00  1.70000000E+00  1.30000000E+00  1.30000000E+00  1.70000000E+00
  1.30000000E+00  1.70000000E+00  1.70000000E+00  1.30000000E+00  1.30000000E+00
  1.30000000E+00  1.70000000E+00  1.70000000E+00  1.30000000E+00  1.70000000E+00
  1.70000000E+00  1.30000000E+00  1.70000000E+00  1.70000000E+00  1.30000000E+00
  1.70000000E+00  1.70000000E+00  1.30000000E+00  1.70000000E+00  1.30000000E+00
  1.30000000E+00  1.30000000E+00  1.70000000E+00  1.70000000E+00  1.70000000E+00
  1.70000000E+00  1.70000000E+00  1.30000000E+00  1.70000000E+00  1.70000000E+00
  1.70000000E+00  1.70000000E+00  1.70000000E+00  1.30000000E+00  1.30000000E+00
  1.70000000E+00  1.30000000E+00  1.70000000E+00  1.70000000E+00  1.30000000E+00
  1.30000000E+00  1.30000000E+00  1.70000000E+00  1.70000000E+00  1.30000000E+00
  1.70000000E+00  1.70000000E+00  1.30000000E+00  1.70000000E+00  1.70000000E+00
  1.30000000E+00  1.70000000E+00  1.70000000E+00  1.30000000E+00  1.70000000E+00
  1.30000000E+00  1.30000000E+00  1.30000000E+00  1.70000000E+00  1.70000000E+00
  1.70000000E+00  1.70000000E+00  1.70000000E+00  1.30000000E+00  1.70000000E+00
  1.70000000E+00  1.70000000E+00  1.70000000E+00  1.70000000E+00  1.30000000E+00
  1.30000000E+00  1.70000000E+00  1.30000000E+00  1.70000000E+00  1.70000000E+00
  1.30000000E+00  1.30000000E+00  1.30000000E+00  1.70000000E+00  1.70000000E+00
  1.30000000E+00  1.70000000E+00  1.70000000E+00  1.30000000E+00  1.70000000E+00
  1.70000000E+00  1.30000000E+00  1.70000000E+00  1.70000000E+00  1.30000000E+00
  1.70000000E+00  1.30000000E+00  1.30000000E+00  1.30000000E+00  1.70000000E+00
  1.70000000E+00  1.70000000E+00  1.70000000E+00  1.70000000E+00  1.30000000E+00
  1.70000000E+00  1.70000000E+00  1.70000000E+00  1.70000000E+00  1.70000000E+00
  1.30000000E+00  1.30000000E+00  1.70000000E+00  1.30000000E+00  1.70000000E+00
  1.70000000E+00  1.30000000E+00  1.30000000E+00  1.30000000E+00  1.70000000E+00
  1.70000000E+00  1.30000000E+00  1.70000000E+00  1.70000000E+00  1.30000000E+00
  1.70000000E+00  1.70000000E+00  1.30000000E+00  1.70000000E+00  1.70000000E+00
  1.30000000E+00  1.70000000E+00  1.30000000E+00  1.30000000E+00  1.30000000E+00
  1.70000000E+00  1.70000000E+00  1.70000000E+00  1.70000000E+00  1.70000000E+00
  1.30000000E+00  1.70000000E+00  1.70000000E+00  1.70000000E+00  1.70000000E+00
  1.70000000E+00  1.30000000E+00  1.30000000E+00  1.70000000E+00  1.30000000E+00
  1.70000000E+00  1.70000000E+00  1.30000000E+00  1.30000000E+00  1.30000000E+00
  1.70000000E+00  1.70000000E+00  1.30000000E+00  1.70000000E+00  1.70000000E+00
  1.30000000E+00  1.70000000E+00  1.70000000E+00  1.30000000E+00  1.70000000E+00
  1.70000000E+00  1.30000000E+00  1.70000000E+00  1.30000000E+00  1.30000000E+00
  1.30000000E+00  1.70000000E+00  1.70000000E+00  1.70000000E+00  1.70000000E+00
  1.70000000E+00  1.30000000E+00  1.70000000E+00  1.70000000E+00  1.70000000E+00
  1.70000000E+00  1.70000000E+00  1.30000000E+00  1.30000000E+00  1.70000000E+00
  1.30000000E+00  1.70000000E+00  1.70000000E+00  1.30000000E+00  1.30000000E+00
  1.30000000E+00  1.70000000E+00  1.70000000E+00  1.30000000E+00  1.70000000E+00
  1.70000000E+00  1.30000000E+00  1.70000000E+00  1.70000000E+00  1.30000000E+00
  1.70000000E+00  1.70000000E+00  1.30000000E+00  1.70000000E+00  1.30000000E+00
  1.30000000E+00  1.30000000E+00  1.70000000E+00  1.70000000E+00  1.70000000E+00
  1.70000000E+00  1.70000000E+00  1.30000000E+00  1.70000000E+00  1.70000000E+00
  1.70000000E+00  1.70000000E+00  1.70000000E+00  1.30000000E+00  1.30000000E+00
  1.70000000E+00  1.30000000E+00  1.70000000E+00  1.70000000E+00  1.30000000E+00
  1.30000000E+00  1.30000000E+00  1.70000000E+00  1.70000000E+00  1.30000000E+00
  1.70000000E+00  1.70000000E+00  1.30000000E+00  1.70000000E+00  1.70000000E+00
  1.30000000E+00  1.70000000E+00  1.70000000E+00  1.30000000E+00  1.70000000E+00
  1.30000000E+00  1.30000000E+00  1.30000000E+00  1.70000000E+00  1.70000000E+00
  1.70000000E+00  1.70000000E+00  1.70000000E+00  1.30000000E+00  1.70000000E+00
  1.70000000E+00  1.70000000E+00  1.70000000E+00  1.70000000E+00  1.30000000E+00
  1.30000000E+00  1.70000000E+00  1.30000000E+00  1.70000000E+00  1.70000000E+00
  1.30000000E+00  1.30000000E+00  1.30000000E+00  1.70000000E+00  1.70000000E+00
  1.30000000E+00  1.70000000E+00  1.70000000E+00  1.30000000E+00  1.70000000E+00
  1.70000000E+00  1.30000000E+00  1.70000000E+00  1.70000000E+00  1.30000000E+00
  1.70000000E+00  1.30000000E+00  1.30000000E+00  1.30000000E+00  1.70000000E+00
  1.70000000E+00  1.70000000E+00  1.70000000E+00  1.70000000E+00  1.30000000E+00
  1.70000000E+00  1.70000000E+00  1.70000000E+00  1.70000000E+00  1.70000000E+00
  1.30000000E+00  1.30000000E+00  1.70000000E+00  1.30000000E+00  1.70000000E+00
  1.70000000E+00  1.30000000E+00  1.30000000E+00  1.30000000E+00  1.70000000E+00
  1.70000000E+00  1.30000000E+00  1.70000000E+00  1.70000000E+00  1.30000000E+00
  1.70000000E+00  1.70000000E+00  1.30000000E+00  1.70000000E+00  1.70000000E+00
  1.30000000E+00  1.70000000E+00  1.30000000E+00  1.30000000E+00  1.30000000E+00
  1.70000000E+00  1.70000000E+00  1.70000000E+00  1.70000000E+00  1.70000000E+00
  1.30000000E+00  1.70000000E+00  1.70000000E+00  1.70000000E+00  1.70000000E+00
  1.70000000E+00  1.30000000E+00  1.30000000E+00  1.70000000E+00  1.30000000E+00
  1.70000000E+00  1.70000000E+00  1.30000000E+00  1.30000000E+00  1.30000000E+00
  1.70000000E+00  1.70000000E+00  1.30000000E+00  1.70000000E+00  1.70000000E+00
  1.30000000E+00  1.70000000E+00  1.70000000E+00  1.30000000E+00  1.70000000E+00
  1.70000000E+00  1.30000000E+00  1.70000000E+00  1.30000000E+00  1.30000000E+00
  1.30000000E+00  1.70000000E+00  1.70000000E+00  1.70000000E+00  1.70000000E+00
  1.70000000E+00  1.30000000E+00  1.70000000E+00  1.70000000E+00  1.70000000E+00
  1.70000000E+00  1.70000000E+00  1.30000000E+00  1.30000000E+00  1.70000000E+00
  1.30000000E+00  1.70000000E+00  1.70000000E+00  1.30000000E+00  1.30000000E+00
  1.30000000E+00  1.70000000E+00  1.70000000E+00  1.30000000E+00  1.70000000E+00
  1.70000000E+00  1.30000000E+00  1.70000000E+00  1.70000000E+00  1.30000000E+00
  1.70000000E+00  1.70000000E+00  1.30000000E+00  1.70000000E+00  1.30000000E+00
  1.30000000E+00  1.30000000E+00  1.70000000E+00  1.70000000E+00  1.70000000E+00
  1.70000000E+00  1.70000000E+00  1.30000000E+00  1.70000000E+00  1.70000000E+00
  1.70000000E+00  1.70000000E+00  1.70000000E+00  1.30000000E+00  1.30000000E+00
  1.70000000E+00  1.30000000E+00  1.70000000E+00  1.70000000E+00  1.30000000E+00
  1.30000000E+00  1.30000000E+00  1.70000000E+00  1.70000000E+00  1.30000000E+00
  1.70000000E+00  1.70000000E+00  1.30000000E+00  1.70000000E+00  1.70000000E+00
  1.30000000E+00  1.70000000E+00  1.70000000E+00  1.30000000E+00  1.70000000E+00
  1.30000000E+00  1.30000000E+00  1.30000000E+00  1.70000000E+00  1.70000000E+00
  1.70000000E+00  1.70000000E+00  1.70000000E+00  1.30000000E+00  1.70000000E+00
  1.70000000E+00  1.70000000E+00  1.70000000E+00  1.70000000E+00  1.30000000E+00
  1.30000000E+00  1.70000000E+00  1.30000000E+00  1.70000000E+00  1.70000000E+00
  1.30000000E+00  1.30000000E+00  1.30000000E+00  1.70000000E+00  1.70000000E+00
  1.30000000E+00  1.70000000E+00  1.70000000E+00  1.30000000E+00  1.70000000E+00
  1.70000000E+00  1.30000000E+00  1.70000000E+00  1.70000000E+00  1.30000000E+00
  1.70000000E+00  1.30000000E+00  1.30000000E+00  1.30000000E+00  1.70000000E+00
  1.70000000E+00  1.70000000E+00  1.70000000E+00  1.70000000E+00  1.30000000E+00
  1.70000000E+00  1.70000000E+00  1.70000000E+00  1.70000000E+00  1.70000000E+00
  1.30000000E+00  1.30000000E+00  1.70000000E+00  1.30000000E+00  1.70000000E+00
  1.70000000E+00  1.30000000E+00  1.30000000E+00  1.30000000E+00  1.70000000E+00
  1.70000000E+00  1.30000000E+00  1.70000000E+00  1.70000000E+00  1.30000000E+00
  1.70000000E+00  1.70000000E+00  1.30000000E+00  1.70000000E+00  1.70000000E+00
  1.30000000E+00  1.70000000E+00  1.30000000E+00  1.30000000E+00  1.30000000E+00
%FLAG SCREEN
%FORMAT(5E16.8)
  7.20000000E-01  7.20000000E-01  7.20000000E-01  7.20000000E-01  7.20000000E-01
  8.50000000E-01  7.20000000E-01  7.20000000E-01  7.20000000E-01  7.20000000E-01
  7.20000000E-01  8.50000000E-01  8.50000000E-01  7.20000000E-01  8.50000000E-01
  7.20000000E-01  7.20000000E-01  8.50000000E-01  8.50000000E-01  8.50000000E-01
  7.20000000E-01  7.20000000E-01  8.50000000E-01  7.20000000E-01  7.20000000E-01
  8.50000000E-01  7.20000000E-01  7.20000000E-01  8.50000000E-01  7.20000000E-01
  7.20000000E-01  8.50000000E-01  7.20000000E-01  8.50000000E-01  8.50000000E-01
  8.50000000E-01  7.20000000E-01  7.20000000E-01  7.20000000E-01  7.20000000E-01
  7.20000000E-01  8.50000000E-01  7.20000000E-01  7.20000000E-01  7.20000000E-01
  7.20000000E-01  7.20000000E-01  8.50000000E-01  8.50000000E-01  7.20000000E-01
  8.50000000E-01  7.20000000E-01  7.20000000E-01  8.50000000E-01  8.50000000E-01
  8.50000000E-01  7.20000000E-01  7.20000000E-01  8.50000000E-01  7.20000000E-01
  7.20000000E-01  8.50000000E-01  7.20000000E-01  7.20000000E-01  8.50000000E-01
  7.20000000E-01  7.20000000E-01  8.50000000E-01  7.20000000E-01  8.50000000E-01
  8.50000000E-01  8.50000000E-01  7.20000000E-01  7.20000000E-01  7.20000000E-01
  7.20000000E-01  7.20000000E-01  8.50000000E-01  7.20000000E-01  7.20000000E-01
  7.20000000E-01  7.20000000E-01  7.20000000E-01  8.50000000E-01  8.50000000E-01
  7.20000000E-01  8.50000000E-01  7.20000000E-01  7.20000000E-01  8.50000000E-01
  8.50000000E-01  8.50000000E-01  7.20000000E-01  7.20000000E-01  8.50000000E-01
  7.20000000E-01  7.20000000E-01  8.50000000E-01  7.20000000E-01  7.20000000E-01
  8.50000000E-01  7.20000000E-01  7.20000000E-01  8.50000000E-01  7.20000000E-01
  8.50000000E-01  8.50000000E-01  8.50000000E-01  7.20000000E-01  7.20000000E-01
  7.20000000E-01  7.20000000E-01  7.20000000E-01  8.50000000E-01  7.20000000E-01
  7.20000000E-01  7.20000000E-01  7.20000000E-01  7.20000000E-01  8.50000000E-01
  8.50000000E-01  7.20000000E-01  8.50000000E-01  7.20000000E-01  7.20000000E-01
  8.50000000E-01  8.50000000E-01  8.50000000E-01  7.20000000E-01  7.20000000E-01
  8.50000000E-01  7.20000000E-01  7.20000000E-01  8.50000000E-01  7.20000000E-01
  7.20000000E-01  8.50000000E-01  7.20000000E-01  7.20000000E-01  8.50000000E-01
  7.20000000E-01  8.50000000E-01  8.50000000E-01  8.50000000E-01  7.20000000E-01
  7.20000000E-01  7.20000000E-01  7.20000000E-01  7.20000000E-01  8.50000000E-01
  7.20000000E-01  7.20000000E-01  7.20000000E-01  7.20000000E-01  7.20000000E-01
  8.50000000E-01  8.50000000E-01  7.20000000E-01  8.50000000E-01  7.20000000E-01
  7.20000000E-01  8.50000000E-01  8.50000000E-01  8.50000000E-01  7.20000000E-01
  7.20000000E-01  8.50000000E-01  7.20000000E-01  7.20000000E-01  8.50000000E-01
  7.20000000E-01  7.20000000E-01  8.50000000E-01  7.20000000E-01  7.20000000E-01
  8.50000000E-01  7.20000000E-01  8.50000000E-01  8.50000000E-01  8.50000000E-01
  7.20000000E-01  7.20000000E-01  7.20000000E-01  7.20000000E-01  7.20000000E-01
  8.50000000E-01  7.20000000E-01  7.20000000E-01  7.20000000E-01  7.20000000E-01
  7.20000000E-01  8.50000000E-01  8.50000000E-01  7.20000000E-01  8.50000000E-01
  7.20000000E-01  7.20000000E-01  8.50000000E-01  8.50000000E-01  8.50000000E-01
  7.20000000E-01  7.20000000E-01  8.50000000E-01  7.20000000E-01  7.20000000E-01
  8.50000000E-01  7.20000000E-01  7.20000000E-01  8.50000000E-01  7.20000000E-01
  7.20000000E-01  8.50000000E-01  7.20000000E-01  8.50000000E-01  8.50000000E-01
  8.50000000E-01  7.20000000E-01  7.20000000E-01  7.20000000E-01  7.20000000E-01
  7.20000000E-01  8.50000000E-01  7.20000000E-01  7.20000000E-01  7.20000000E-01
  7.20000000E-01  7.20000000E-01  8.50000000E-01  8.50000000E-01  7.20000000E-01
  8.50000000E-01  7.20000000E-01  7.20000000E-01  8.50000000E-01  8.50000000E-01
  8.50000000E-01  7.20000000E-01  7.20000000E-01  8.50000000E-01  7.20000000E-01
  7.20000000E-01  8.50000000E-01  7.20000000E-01  7.20000000E-01  8.50000000E-01
  7.20000000E-01  7.20000000E-01  8.50000000E-01  7.20000000E-01  8.50000000E-01
  8.50000000E-01  8.50000000E-01  7.20000000E-01  7.20000000E-01  7.20000000E-01
  7.20000000E-01  7.20000000E-01  8.50000000E-01  7.20000000E-01  7.20000000E-01
  7.20000000E-01  7.20000000E-01  7.20000000E-01  8.50000000E-01  8.50000000E-01
  7.20000000E-01  8.50000000E-01  7.20000000E-01  7.20000000E-01  8.50000000E-01
  8.50000000E-01  8.50000000E-01  7.20000000E-01  7.20000000E-01  8.50000000E-01
  7.20000000E-01  7.20000000E-01  8.50000000E-01  7.20000000E-01  7.20000000E-01
  8.50000000E-01  7.20000000E-01  7.20000000E-01  8.50000000E-01  7.20000000E-01
  8.50000000E-01  8.50000000E-01  8.50000000E-01  7.20000000E-01  7.20000000E-01
  7.20000000E-01  7.20000000E-01  7.20000000E-01  8.50000000E-01  7.20000000E-01
  7.20000000E-01  7.20000000E-01  7.20000000E-01  7.20000000E-01  8.50000000E-01
  8.50000000E-01  7.20000000E-01  8.50000000E-01  7.20000000E-01  7.20000000E-01
  8.50000000E-01  8.50000000E-01  8.50000000E-01  7.20000000E-01  7.20000000E-01
  8.50000000E-01  7.20000000E-01  7.20000000E-01  8.50000000E-01  7.20000000E-01
  7.20000000E-01  8.50000000E-01  7.20000000E-01  7.20000000E-01  8.50000000E-01
  7.20000000E-01  8.50000000E-01  8.50000000E-01  8.50000000E-01  7.20000000E-01
  7.20000000E-01  7.20000000E-01  7.20000000E-01  7.20000000E-01  8.50000000E-01
  7.20000000E-01  7.20000000E-01  7.20000000E-01  7.20000000E-01  7.20000000E-01
  8.50000000E-01  8.50000000E-01  7.20000000E-01  8.50000000E-01  7.20000000E-01
  7.20000000E-01  8.50000000E-01  8.50000000E-01  8.50000000E-01  7.20000000E-01
  7.20000000E-01  8.50000000E-01  7.20000000E-01  7.20000000E-01  8.50000000E-01
  7.20000000E-01  7.20000000E-01  8.50000000E-01  7.20000000E-01  7.20000000E-01
  8.50000000E-01  7.20000000E-01  8.50000000E-01  8.50000000E-01  8.50000000E-01
  7.20000000E-01  7.20000000E-01  7.20000000E-01  7.20000000E-01  7.20000000E-01
  8.50000000E-01  7.20000000E-01  7.20000000E-01  7.20000000E-01  7.20000000E-01
  7.20000000E-01  8.50000000E-01  8.50000000E-01  7.20000000E-01  8.50000000E-01
  7.20000000E-01  7.20000000E-01  8.50000000E-01  8.50000000E-01  8.50000000E-01
  7.20000000E-01  7.20000000E-01  8.50000000E-01  7.20000000E-01  7.20000000E-01
  8.50000000E-01  7.20000000E-01  7.20000000E-01  8.50000000E-01  7.20000000E-01
  7.20000000E-01  8.50000000E-01  7.20000000E-01  8.50000000E-01  8.50000000E-01
  8.50000000E-01  7.20000000E-01  7.20000000E-01  7.20000000E-01  7.20000000E-01
  7.20000000E-01  8.50000000E-01  7.20000000E-01  7.20000000E-01  7.20000000E-01
  7.20000000E-01  7.20000000E-01  8.50000000E-01  8.50000000E-01  7.20000000E-01
  8.50000000E-01  7.20000000E-01  7.20000000E-01  8.50000000E-01  8.50000000E-01
  8.50000000E-01  7.20000000E-01  7.20000000E-01  8.50000000E-01  7.20000000E-01
  7.20000000E-01  8.50000000E-01  7.20000000E-01  7.20000000E-01  8.50000000E-01
  7.20000000E-01  7.20000000E-01  8.50000000E-01  7.20000000E-01  8.50000000E-01
  8.50000000E-01  8.50000000E-01  7.20000000E-01  7.20000000E-01  7.20000000E-01
  7.20000000E-01  7.20000000E-01  8.50000000E-01  7.20000000E-01  7.20000000E-01
  7.20000000E-01  7.20000000E-01  7.20000000E-01  8.50000000E-01  8.50000000E-01
  7.20000000E-01  8.50000000E-01  7.20000000E-01  7.20000000E-01  8.50000000E-01
  8.50000000E-01  8.50000000E-01  7.20000000E-01  7.20000000E-01  8.50000000E-01
  7.20000000E-01  7.20000000E-01  8.50000000E-01  7.20000000E-01  7.20000000E-01
  8.50000000E-01  7.20000000E-01  7.20000000E-01  8.50000000E-01  7.20000000E-01
  8.50000000E-01  8.50000000E-01  8.50000000E-01  7.20000000E-01  7.20000000E-01
  7.20000000E-01  7.20000000E-01  7.20000000E-01  8.50000000E-01  7.20000000E-01
  7.20000000E-01  7.20000000E-01  7.20000000E-01  7.20000000E-01  8.50000000E-01
  8.50000000E-01  7.20000000E-01  8.50000000E-01  7.20000000E-01  7.20000000E-01
  8.50000000E-01  8.50000000E-01  8.50000000E-01  7.20000000E-01  7.20000000E-01
  8.50000000E-01  7.20000000E-01  7.20000000E-01  8.50000000E-01  7.20000000E-01
  7.20000000E-01  8.50000000E-01  7.20000000E-01  7.20000000E-01  8.50000000E-01
  7.20000000E-01  8.50000000E-01  8.50000000E-01  8.50000000E-01  7.20000000E-01
  7.20000000E-01  7.20000000E-01  7.20000000E-01  7.20000000E-01  8.50000000E-01
  7.20000000E-01  7.20000000E-01  7.20000000E-01  7.20000000E-01  7.20000000E-01
  8.50000000E-01  8.50000000E-01  7.20000000E-01  8.50000000E-01  7.20000000E-01
  7.20000000E-01  8.50000000E-01  8.50000000E-01  8.50000000E-01  7.20000000E-01
  7.20000000E-01  8.50000000E-01  7.20000000E-01  7.20000000E-01  8.50000000E-01
  7.20000000E-01  7.20000000E-01  8.50000000E-01  7.20000000E-01  7.20000000E-01
  8.50000000E-01  7.20000000E-01  8.50000000E-01  8.50000000E-01  8.50000000E-01
  7.20000000E-01  7.20000000E-01  7.20000000E-01  7.20000000E-01  7.20000000E-01
  8.50000000E-01  7.20000000E-01  7.20000000E-01  7.20000000E-01  7.20000000E-01
  7.20000000E-01  8.50000000E-01  8.50000000E-01  7.20000000E-01  8.50000000E-01
  7.20000000E-01  7.20000000E-01  8.50000000E-01  8.50000000E-01  8.50000000E-01
  7.20000000E-01  7.20000000E-01  8.50000000E-01  7.20000000E-01  7.20000000E-01
  8.50000000E-01  7.20000000E-01  7.20000000E-01  8.50000000E-01  7.20000000E-01
  7.20000000E-01  8.50000000E-01  7.20000000E-01  8.50000000E-01  8.50000000E-01
  8.50000000E-01  7.20000000E-01  7.20000000E-01  7.20000000E-01  7.20000000E-01
  7.20000000E-01  8.50000000E-01  7.20000000E-01  7.20000000E-01  7.20000000E-01
  7.20000000E-01  7.20000000E-01  8.50000000E-01  8.50000000E-01  7.20000000E-01
  8.50000000E-01  7.20000000E-01  7.20000000E-01  8.50000000E-01  8.50000000E-01
  8.50000000E-01  7.20000000E-01  7.20000000E-01  8.50000000E-01  7.20000000E-01
  7.20000000E-01  8.50000000E-01  7.20000000E-01  7.20000000E-01  8.50000000E-01
  7.20000000E-01  7.20000000E-01  8.50000000E-01  7.20000000E-01  8.50000000E-01
  8.50000000E-01  8.50000000E-01  7.20000000E-01  7.20000000E-01  7.20000000E-01
  7.20000000E-01  7.20000000E-01  8.50000000E-01  7.20000000E-01  7.20000000E-01
  7.20000000E-01  7.20000000E-01  7.20000000E-01  8.50000000E-01  8.50000000E-01
  7.20000000E-01  8.50000000E-01  7.20000000E-01  7.20000000E-01  8.50000000E-01
  8.50000000E-01  8.50000000E-01  7.20000000E-01  7.20000000E-01  8.50000000E-01
  7.20000000E-01  7.20000000E-01  8.50000000E-01  7.20000000E-01  7.20000000E-01
  8.50000000E-01  7.20000000E-01  7.20000000E-01  8.50000000E-01  7.20000000E-01
  8.50000000E-01  8.50000000E-01  8.50000000E-01  7.20000000E-01  7.20000000E-01
  7.20000000E-01  7.20000000E-01  7.20000000E-01  8.50000000E-01  7.20000000E-01
  7.20000000E-01  7.20000000E-01  7.20000000E-01  7.20000000E-01  8.50000000E-01
  8.50000000E-01  7.20000000E-01  8.50000000E-01  7.20000000E-01  7.20000000E-01
  8.50000000E-01  8.50000000E-01  8.50000000E-01  7.20000000E-01  7.20000000E-01
  8.50000000E-01  7.20000000E-01  7.20000000E-01  8.50000000E-01  7.20000000E-01
  7.20000000E-01  8.50000000E-01  7.20000000E-01  7.20000000E-01  8.50000000E-01
  7.20000000E-01  8.50000000E-01  8.50000000E-01  8.50000000E-01  7.20000000E-01
  7.20000000E-01  7.20000000E-01  7.20000000E-01  7.20000000E-01  8.50000000E-01
  7.20000000E-01  7.20000000E-01  7.20000000E-01  7.20000000E-01  7.20000000E-01
  8.50000000E-01  8.50000000E-01  7.20000000E-01  8.50000000E-01  7.20000000E-01
  7.20000000E-01  8.50000000E-01  8.50000000E-01  8.50000000E-01  7.20000000E-01
  7.20000000E-01  8.50000000E-01  7.20000000E-01  7.20000000E-01  8.50000000E-01
  7.20000000E-01  7.20000000E-01  8.50000000E-01  7.20000000E-01  7.20000000E-01
  8.50000000E-01  7.20000000E-01  8.50000000E-01  8.50000000E-01  8.50000000E-01
  7.20000000E-01  7.20000000E-01  7.20000000E-01  7.20000000E-01  7.20000000E-01
  8.50000000E-01  7.20000000E-01  7.20000000E-01  7.20000000E-01  7.20000000E-01
  7.20000000E-01  8.50000000E-01  8.50000000E-01  7.20000000E-01  8.50000000E-01
  7.20000000E-01  7.20000000E-01  8.50000000E-01  8.50000000E-01  8.50000000E-01
  7.20000000E-01  7.20000000E-01  8.50000000E-01  7.20000000E-01  7.20000000E-01
  8.50000000E-01  7.20000000E-01  7.20000000E-01  8.50000000E-01  7.20000000E-01
  7.20000000E-01  8.50000000E-01  7.20000000E-01  8.50000000E-01  8.50000000E-01
  8.50000000E-01  7.20000000E-01  7.20000000E-01  7.20000000E-01  7.20000000E-01
  7.20000000E-01  8.50000000E-01  7.20000000E-01  7.20000000E-01  7.20000000E-01
  7.20000000E-01  7.20000000E-01  8.50000000E-01  8.50000000E-01  7.20000000E-01
  8.50000000E-01  7.20000000E-01  7.20000000E-01  8.50000000E-01  8.50000000E-01
  8.50000000E-01  7.20000000E-01  7.20000000E-01  8.50000000E-01  7.20000000E-01
  7.20000000E-01  8.50000000E-01  7.20000000E-01  7.20000000E-01  8.50000000E-01
  7.20000000E-01  7.20000000E-01  8.50000000E-01  7.20000000E-01  8.50000000E-01
  8.50000000E-01  8.50000000E-01  7.20000000E-01  7.20000000E-01  7.20000000E-01
  7.20000000E-01  7.20000000E-01  8.50000000E-01  7.20000000E-01  7.20000000E-01
  7.20000000E-01  7.20000000E-01  7.20000000E-01  8.50000000E-01  8.50000000E-01
  7.20000000E-01  8.50000000E-01  7.20000000E-01  7.20000000E-01  8.50000000E-01
  8.50000000E-01  8.50000000E-01  7.20000000E-01  7.20000000E-01  8.50000000E-01
  7.20000000E-01  7.20000000E-01  8.50000000E-01  7.20000000E-01  7.20000000E-01
  8.50000000E-01  7.20000000E-01  7.20000000E-01  8.50000000E-01  7.20000000E-01
  8.50000000E-01  8.50000000E-01  8.50000000E-01  7.20000000E-01  7.20000000E-01
  7.20000000E-01  7.20000000E-01  7.20000000E-01  8.50000000E-01  7.20000000E-01
  7.20000000E-01  7.20000000E-01  7.20000000E-01  7.20000000E-01  8.50000000E-01
  8.50000000E-01  7.20000000E-01  8.50000000E-01  7.20000000E-01  7.20000000E-01
  8.50000000E-01  8.50000000E-01  8.50000000E-01  7.20000000E-01  7.20000000E-01
  8.50000000E-01  7.20000000E-01  7.20000000E-01  8.50000000E-01  7.20000000E-01
  7.20000000E-01  8.50000000E-01  7.20000000E-01  7.20000000E-01  8.50000000E-01
  7.20000000E-01  8.50000000E-01  8.50000000E-01  8.50000000E-01  7.20000000E-01
  7.20000000E-01  7.20000000E-01  7.20000000E-01  7.20000000E-01  8.50000000E-01
  7.20000000E-01  7.20000000E-01  7.20000000E-01  7.20000000E-01  7.20000000E-01
  8.50000000E-01  8.50000000E-01  7.20000000E-01  8.50000000E-01  7.20000000E-01
  7.20000000E-01  8.50000000E-01  8.50000000E-01  8.50000000E-01  7.20000000E-01
  7.20000000E-01  8.50000000E-01  7.20000000E-01  7.20000000E-01  8.50000000E-01
  7.20000000E-01  7.20000000E-01  8.50000000E-01  7.20000000E-01  7.20000000E-01
  8.50000000E-01  7.20000000E-01  8.50000000E-01  8.50000000E-01  8.50000000E-01
  7.20000000E-01  7.20000000E-01  7.20000000E-01  7.20000000E-01  7.20000000E-01
  8.50000000E-01  7.20000000E-01  7.20000000E-01  7.20000000E-01  7.20000000E-01
  7.20000000E-01  8.50000000E-01  8.50000000E-01  7.20000000E-01  8.50000000E-01
  7.20000000E-01  7.20000000E-01  8.50000000E-01  8.50000000E-01  8.50000000E-01
  7.20000000E-01  7.20000000E-01  8.50000000E-01  7.20000000E-01  7.20000000E-01
  8.50000000E-01  7.20000000E-01  7.20000000E-01  8.50000000E-01  7.20000000E-01
  7.20000000E-01  8.50000000E-01  7.20000000E-01  8.50000000E-01  8.50000000E-01
  8.50000000E-01  7.20000000E-01  7.20000000E-01  7.20000000E-01  7.20000000E-01
  7.20000000E-01  8.50000000E-01  7.20000000E-01  7.20000000E-01  7.20000000E-01
  7.20000000E-01  7.20000000E-01  8.50000000E-01  8.50000000E-01  7.20000000E-01
  8.50000000E-01  7.20000000E-01  7.20000000E-01  8.50000000E-01  8.50000000E-01
  8.50000000E-01  7.20000000E-01  7.20000000E-01  8.50000000E-01  7.20000000E-01
  7.20000000E-01  8.50000000E-01  7.20000000E-01  7.20000000E-01  8.50000000E-01
  7.20000000E-01  7.20000000E-01  8.50000000E-01  7.20000000E-01  8.50000000E-01
  8.50000000E-01  8.50000000E-01  7.20000000E-01  7.20000000E-01  7.20000000E-01
  7.20000000E-01  7.20000000E-01  8.50000000E-01  7.20000000E-01  7.20000000E-01
  7.20000000E-01  7.20000000E-01  7.20000000E-01  8.50000000E-01  8.50000000E-01
  7.20000000E-01  8.50000000E-01  7.20000000E-01  7.20000000E-01  8.50000000E-01
  8.50000000E-01  8.50000000E-01  7.20000000E-01  7.20000000E-01  8.50000000E-01
  7.20000000E-01  7.20000000E-01  8.50000000E-01  7.20000000E-01  7.20000000E-01
  8.50000000E-01  7.20000000E-01  7.20000000E-01  8.50000000E-01  7.20000000E-01
  8.50000000E-01  8.50000000E-01  8.50000000E-01  7.20000000E-01  7.20000000E-01
  7.20000000E-01  7.20000000E-01  7.20000000E-01  8.50000000E-01  7.20000000E-01
  7.20000000E-01  7.20000000E-01  7.20000000E-01  7.20000000E-01  8.50000000E-01
  8.50000000E-01  7.20000000E-01  8.50000000E-01  7.20000000E-01  7.20000000E-01
  8.50000000E-01  8.50000000E-01  8.50000000E-01  7.20000000E-01  7.20000000E-01
  8.50000000E-01  7.20000000E-01  7.20000000E-01  8.50000000E-01  7.20000000E-01
  7.20000000E-01  8.50000000E-01  7.20000000E-01  7.20000000E-01  8.50000000E-01
  7.20000000E-01  8.50000000E-01  8.50000000E-01  8.50000000E-01  7.20000000E-01
  7.20000000E-01  7.20000000E-01  7.20000000E-01  7.20000000E-01  8.50000000E-01
  7.20000000E-01  7.20000000E-01  7.20000000E-01  7.20000000E-01  7.20000000E-01
  8.50000000E-01  8.50000000E-01  7.20000000E-01  8.50000000E-01  7.20000000E-01
  7.20000000E-01  8.50000000E-01  8.50000000E-01  8.50000000E-01  7.20000000E-01
  7.20000000E-01  8.50000000E-01  7.20000000E-01  7.20000000E-01  8.50000000E-01
  7.20000000E-01  7.20000000E-01  8.50000000E-01  7.20000000E-01  7.20000000E-01
  8.50000000E-01  7.20000000E-01  8.50000000E-01  8.50000000E-01  8.50000000E-01
  7.20000000E-01  7.20000000E-01  7.20000000E-01  7.20000000E-01  7.20000000E-01
  8.50000000E-01  7.20000000E-01  7.20000000E-01  7.20000000E-01  7.20000000E-01
  7.20000000E-01  8.50000000E-01  8.50000000E-01  7.20000000E-01  8.50000000E-01
  7.20000000E-01  7.20000000E-01  8.50000000E-01  8.50000000E-01  8.50000000E-01
  7.20000000E-01  7.20000000E-01  8.50000000E-01  7.20000000E-01  7.20000000E-01
  8.50000000E-01  7.20000000E-01  7.20000000E-01  8.50000000E-01  7.20000000E-01
  7.20000000E-01  8.50000000E-01  7.20000000E-01  8.50000000E-01  8.50000000E-01
  8.50000000E-01  7.20000000E-01  7.20000000E-01  7.20000000E-01  7.20000000E-01
  7.20000000E-01  8.50000000E-01  7.20000000E-01  7.20000000E-01  7.20000000E-01
  7.20000000E-01  7.20000000E-01  8.50000000E-01  8.50000000E-01  7.20000000E-01
  8.50000000E-01  7.20000000E-01  7.20000000E-01  8.50000000E-01  8.50000000E-01
  8.50000000E-01  7.20000000E-01  7.20000000E-01  8.50000000E-01  7.20000000E-01
  7.20000000E-01  8.50000000E-01  7.20000000E-01  7.20000000E-01  8.50000000E-01
  7.20000000E-01  7.20000000E-01  8.50000000E-01  7.20000000E-01  8.50000000E-01
  8.50000000E-01  8.50000000E-01  7.20000000E-01  7.20000000E-01  7.20000000E-01
  7.20000000E-01  7.20000000E-01  8.50000000E-01  7.20000000E-01  7.20000000E-01
  7.20000000E-01  7.20000000E-01  7.20000000E-01  8.50000000E-01  8.50000000E-01
  7.20000000E-01  8.50000000E-01  7.20000000E-01  7.20000000E-01  8.50000000E-01
  8.50000000E-01  8.50000000E-01  7.20000000E-01  7.20000000E-01  8.50000000E-01
  7.20000000E-01  7.20000000E-01  8.50000000E-01  7.20000000E-01  7.20000000E-01
  8.50000000E-01  7.20000000E-01  7.20000000E-01  8.50000000E-01  7.20000000E-01
  8.50000000E-01  8.50000000E-01  8.50000000E-01  7.20000000E-01  7.20000000E-01
  7.20000000E-01  7.20000000E-01  7.20000000E-01  8.50000000E-01  7.20000000E-01
  7.20000000E-01  7.20000000E-01  7.20000000E-01  7.20000000E-01  8.50000000E-01
  8.50000000E-01  7.20000000E-01  8.50000000E-01  7.20000000E-01  7.20000000E-01
  8.50000000E-01  8.50000000E-01  8.50000000E-01  7.20000000E-01  7.20000000E-01
  8.50000000E-01  7.20000000E-01  7.20000000E-01  8.50000000E-01  7.20000000E-01
  7.20000000E-01  8.50000000E-01  7.20000000E-01  7.20000000E-01  8.50000000E-01
  7.20000000E-01  8.50000000E-01  8.50000000E-01  8.50000000E-01  7.20000000E-01
  7.20000000E-01  7.20000000E-01  7.20000000E-01  7.20000000E-01  8.50000000E-01
  7.20000000E-01  7.20000000E-01  7.20000000E-01  7.20000000E-01  7.20000000E-01
  8.50000000E-01  8.50000000E-01  7.20000000E-01  8.50000000E-01  7.20000000E-01
  7.20000000E-01  8.50000000E-01  8.50000000E-01  8.50000000E-01  7.20000000E-01
  7.20000000E-01  8.50000000E-01  7.20000000E-01  7.20000000E-01  8.50000000E-01
  7.20000000E-01  7.20000000E-01  8.50000000E-01  7.20000000E-01  7.20000000E-01
  8.50000000E-01  7.20000000E-01  8.50000000E-01  8.50000000E-01  8.50000000E-01
  7.20000000E-01  7.20000000E-01  7.20000000E-01  7.20000000E-01  7.20000000E-01
  8.50000000E-01  7.20000000E-01  7.20000000E-01  7.20000000E-01  7.20000000E-01
  7.20000000E-01  8.50000000E-01  8.50000000E-01  7.20000000E-01  8.50000000E-01
  7.20000000E-01  7.20000000E-01  8.50000000E-01  8.50000000E-01  8.50000000E-01
  7.20000000E-01  7.20000000E-01  8.50000000E-01  7.20000000E-01  7.20000000E-01
  8.50000000E-01  7.20000000E-01  7.20000000E-01  8.50000000E-01  7.20000000E-01
  7.20000000E-01  8.50000000E-01  7.20000000E-01  8.50000000E-01  8.50000000E-01
  8.50000000E-01  7.20000000E-01  7.20000000E-01  7.20000000E-01  7.20000000E-01
  7.20000000E-01  8.50000000E-01  7.20000000E-01  7.20000000E-01  7.20000000E-01
  7.20000000E-01  7.20000000E-01  8.50000000E-01  8.50000000E-01  7.20000000E-01
  8.50000000E-01  7.20000000E-01  7.20000000E-01  8.50000000E-01  8.50000000E-01
  8.50000000E-01  7.20000000E-01  7.20000000E-01  8.50000000E-01  7.20000000E-01
  7.20000000E-01  8.50000000E-01  7.20000000E-01  7.20000000E-01  8.50000000E-01
  7.20000000E-01  7.20000000E-01  8.50000000E-01  7.20000000E-01  8.50000000E-01
  8.50000000E-01  8.50000000E-01  7.20000000E-01  7.20000000E-01  7.20000000E-01
  7.20000000E-01  7.20000000E-01  8.50000000E-01  7.20000000E-01  7.20000000E-01
  7.20000000E-01  7.20000000E-01  7.20000000E-01  8.50000000E-01  8.50000000E-01
  7.20000000E-01  8.50000000E-01  7.20000000E-01  7.20000000E-01  8.50000000E-01
  8.50000000E-01  8.50000000E-01  7.20000000E-01  7.20000000E-01  8.50000000E-01
  7.20000000E-01  7.20000000E-01  8.50000000E-01  7.20000000E-01  7.20000000E-01
  8.50000000E-01  7.20000000E-01  7.20000000E-01  8.50000000E-01  7.20000000E-01
  8.50000000E-01  8.50000000E-01  8.50000000E-01  7.20000000E-01  7.20000000E-01
  7.20000000E-01  7.20000000E-01  7.20000000E-01  8.50000000E-01  7.20000000E-01
  7.20000000E-01  7.20000000E-01  7.20000000E-01  7.20000000E-01  8.50000000E-01
  8.50000000E-01  7.20000000E-01  8.50000000E-01  7.20000000E-01  7.20000000E-01
  8.50000000E-01  8.50000000E-01  8.50000000E-01  7.20000000E-01  7.20000000E-01
  8.50000000E-01  7.20000000E-01  7.20000000E-01  8.50000000E-01  7.20000000E-01
  7.20000000E-01  8.50000000E-01  7.20000000E-01  7.20000000E-01  8.50000000E-01
  7.20000000E-01  8.50000000E-01  8.50000000E-01  8.50000000E-01  7.20000000E-01
  7.20000000E-01  7.20000000E-01  7.20000000E-01  7.20000000E-01  8.50000000E-01
  7.20000000E-01  7.20000000E-01  7.20000000E-01  7.20000000E-01  7.20000000E-01
  8.50000000E-01  8.50000000E-01  7.20000000E-01  8.50000000E-01  7.20000000E-01
  7.20000000E-01  8.50000000E-01  8.50000000E-01  8.50000000E-01  7.20000000E-01
  7.20000000E-01  8.50000000E-01  7.20000000E-01  7.20000000E-01  8.50000000E-01
  7.20000000E-01  7.20000000E-01  8.50000000E-01  7.20000000E-01  7.20000000E-01
  8.50000000E-01  7.20000000E-01  8.50000000E-01  8.50000000E-01  8.50000000E-01
  7.20000000E-01  7.20000000E-01  7.20000000E-01  7.20000000E-01  7.20000000E-01
  8.50000000E-01  7.20000000E-01  7.20000000E-01  7.20000000E-01  7.20000000E-01
  7.20000000E-01  8.50000000E-01  8.50000000E-01  7.20000000E-01  8.50000000E-01
  7.20000000E-01  7.20000000E-01  8.50000000E-01  8.50000000E-01  8.50000000E-01
  7.20000000E-01  7.20000000E-01  8.50000000E-01  7.20000000E-01  7.20000000E-01
  8.50000000E-01  7.20000000E-01  7.20000000E-01  8.50000000E-01  7.20000000E-01
  7.20000000E-01  8.50000000E-01  7.20000000E-01  8.50000000E-01  8.50000000E-01
  8.50000000E-01  7.20000000E-01  7.20000000E-01  7.20000000E-01  7.20000000E-01
  7.20000000E-01  8.50000000E-01  7.20000000E-01  7.20000000E-01  7.20000000E-01
  7.20000000E-01  7.20000000E-01  8.50000000E-01  8.50000000E-01  7.20000000E-01
  8.50000000E-01  7.20000000E-01  7.20000000E-01  8.50000000E-01  8.50000000E-01
  8.50000000E-01  7.20000000E-01  7.20000000E-01  8.50000000E-01  7.20000000E-01
  7.20000000E-01  8.50000000E-01  7.20000000E-01  7.20000000E-01  8.50000000E-01
  7.20000000E-01  7.20000000E-01  8.50000000E-01  7.20000000E-01  8.50000000E-01
  8.50000000E-01  8.50000000E-01  7.20000000E-01  7.20000000E-01  7.20000000E-01
  7.20000000E-01  7.20000000E-01  8.50000000E-01  7.20000000E-01  7.20000000E-01
  7.20000000E-01  7.20000000E-01  7.20000000E-01  8.50000000E-01  8.50000000E-01
  7.20000000E-01  8.50000000E-01  7.20000000E-01  7.20000000E-01  8.50000000E-01
  8.50000000E-01  8.50000000E-01  7.20000000E-01  7.20000000E-01  8.50000000E-01
  7.20000000E-01  7.20000000E-01  8.50000000E-01  7.20000000E-01  7.20000000E-01
  8.50000000E-01  7.20000000E-01  7.20000000E-01  8.50000000E-01  7.20000000E-01
  8.50000000E-01  8.50000000E-01  8.50000000E-01  7.20000000E-01  7.20000000E-01
  7.20000000E-01  7.20000000E-01  7.20000000E-01  8.50000000E-01  7.20000000E-01
  7.20000000E-01  7.20000000E-01  7.20000000E-01  7.20000000E-01  8.50000000E-01
  8.50000000E-01  7.20000000E-01  8.50000000E-01  7.20000000E-01  7.20000000E-01
  8.50000000E-01  8.50000000E-01  8.50000000E-01  7.20000000E-01  7.20000000E-01
  8.50000000E-01  7.20000000E-01  7.20000000E-01  8.50000000E-01  7.20000000E-01
  7.20000000E-01  8.50000000E-01  7.20000000E-01  7.20000000E-01  8.50000000E-01
  7.20000000E-01  8.50000000E-01  8.50000000E-01  8.50000000E-01  7.20000000E-01
  7.20000000E-01  7.20000000E-01  7.20000000E-01  7.20000000E-01  8.50000000E-01
  7.20000000E-01  7.20000000E-01  7.20000000E-01  7.20000000E-01  7.20000000E-01
  8.50000000E-01  8.50000000E-01  7.20000000E-01  8.50000000E-01  7.20000000E-01
  7.20000000E-01  8.50000000E-01  8.50000000E-01  8.50000000E-01  7.20000000E-01
  7.20000000E-01  8.50000000E-01  7.20000000E-01  7.20000000E-01  8.50000000E-01
  7.20000000E-01  7.20000000E-01  8.50000000E-01  7.20000000E-01  7.20000000E-01
  8.50000000E-01  7.20000000E-01  8.50000000E-01  8.50000000E-01  8.50000000E-01
  7.20000000E-01  7.20000000E-01  7.20000000E-01  7.20000000E-01  7.20000000E-01
  8.50000000E-01  7.20000000E-01  7.20000000E-01  7.20000000E-01  7.20000000E-01
  7.20000000E-01  8.50000000E-01  8.50000000E-01  7.20000000E-01  8.50000000E-01
  7.20000000E-01  7.20000000E-01  8.50000000E-01  8.50000000E-01  8.50000000E-01
  7.20000000E-01  7.20000000E-01  8.50000000E-01  7.20000000E-01  7.20000000E-01
  8.50000000E-01  7.20000000E-01  7.20000000E-01  8.50000000E-01  7.20000000E-01
  7.20000000E-01  8.50000000E-01  7.20000000E-01  8.50000000E-01  8.50000000E-01
  8.50000000E-01  7.20000000E-01  7.20000000E-01  7.20000000E-01  7.20000000E-01
  7.20000000E-01  8.50000000E-01  7.20000000E-01  7.20000000E-01  7.20000000E-01
  7.20000000E-01  7.20000000E-01  8.50000000E-01  8.50000000E-01  7.20000000E-01
  8.50000000E-01  7.20000000E-01  7.20000000E-01  8.50000000E-01  8.50000000E-01
  8.50000000E-01  7.20000000E-01  7.20000000E-01  8.50000000E-01  7.20000000E-01
  7.20000000E-01  8.50000000E-01  7.20000000E-01  7.20000000E-01  8.50000000E-01
  7.20000000E-01  7.20000000E-01  8.50000000E-01  7.20000000E-01  8.50000000E-01
  8.50000000E-01  8.50000000E-01  7.20000000E-01  7.20000000E-01  7.20000000E-01
  7.20000000E-01  7.20000000E-01  8.50000000E-01  7.20000000E-01  7.20000000E-01
  7.20000000E-01  7.20000000E-01  7.20000000E-01  8.50000000E-01  8.50000000E-01
  7.20000000E-01  8.50000000E-01  7.20000000E-01  7.20000000E-01  8.50000000E-01
  8.50000000E-01  8.50000000E-01  7.20000000E-01  7.20000000E-01  8.50000000E-01
  7.20000000E-01  7.20000000E-01  8.50000000E-01  7.20000000E-01  7.20000000E-01
  8.50000000E-01  7.20000000E-01  7.20000000E-01  8.50000000E-01  7.20000000E-01
  8.50000000E-01  8.50000000E-01  8.50000000E-01  7.20000000E-01  7.20000000E-01
  7.20000000E-01  7.20000000E-01  7.20000000E-01  8.50000000E-01  7.20000000E-01
  7.20000000E-01  7.20000000E-01  7.20000000E-01  7.20000000E-01  8.50000000E-01
  8.50000000E-01  7.20000000E-01  8.50000000E-01  7.20000000E-01  7.20000000E-01
  8.50000000E-01  8.50000000E-01  8.50000000E-01  7.20000000E-01  7.20000000E-01
  8.50000000E-01  7.20000000E-01  7.20000000E-01  8.50000000E-01  7.20000000E-01
  7.20000000E-01  8.50000000E-01  7.20000000E-01  7.20000000E-01  8.50000000E-01
  7.20000000E-01  8.50000000E-01  8.50000000E-01  8.50000000E-01  7.20000000E-01
  7.20000000E-01  7.20000000E-01  7.20000000E-01  7.20000000E-01  8.50000000E-01
  7.20000000E-01  7.20000000E-01  7.20000000E-01  7.20000000E-01  7.20000000E-01
  8.50000000E-01  8.50000000E-01  7.20000000E-01  8.50000000E-01  7.20000000E-01
  7.20000000E-01  8.50000000E-01  8.50000000E-01  8.50000000E-01  7.20000000E-01
  7.20000000E-01  8.50000000E-01  7.20000000E-01  7.20000000E-01  8.50000000E-01
  7.20000000E-01  7.20000000E-01  8.50000000E-01  7.20000000E-01  7.20000000E-01
  8.50000000E-01  7.20000000E-01  8.50000000E-01  8.50000000E-01  8.50000000E-01
  7.20000000E-01  7.20000000E-01  7.20000000E-01  7.20000000E-01  7.20000000E-01
  8.50000000E-01  7.20000000E-01  7.20000000E-01  7.20000000E-01  7.20000000E-01
  7.20000000E-01  8.50000000E-01  8.50000000E-01  7.20000000E-01  8.50000000E-01
  7.20000000E-01  7.20000000E-01  8.50000000E-01  8.50000000E-01  8.50000000E-01
  7.20000000E-01  7.20000000E-01  8.50000000E-01  7.20000000E-01  7.20000000E-01
  8.50000000E-01  7.20000000E-01  7.20000000E-01  8.50000000E-01  7.20000000E-01
  7.20000000E-01  8.50000000E-01  7.20000000E-01  8.50000000E-01  8.50000000E-01
  8.50000000E-01  7.20000000E-01  7.20000000E-01  7.20000000E-01  7.20000000E-01
  7.20000000E-01  8.50000000E-01  7.20000000E-01  7.20000000E-01  7.20000000E-01
  7.20000000E-01  7.20000000E-01  8.50000000E-01  8.50000000E-01  7.20000000E-01
  8.50000000E-01  7.20000000E-01  7.20000000E-01  8.50000000E-01  8.50000000E-01
  8.50000000E-01  7.20000000E-01  7.20000000E-01  8.50000000E-01  7.20000000E-01
  7.20000000E-01  8.50000000E-01  7.20000000E-01  7.20000000E-01  8.50000000E-01
  7.20000000E-01  7.20000000E-01  8.50000000E-01  7.20000000E-01  8.50000000E-01
  8.50000000E-01  8.50000000E-01  7.20000000E-01  7.20000000E-01  7.20000000E-01
  7.20000000E-01  7.20000000E-01  8.50000000E-01  7.20000000E-01  7.20000000E-01
  7.20000000E-01  7.20000000E-01  7.20000000E-01  8.50000000E-01  8.50000000E-01
  7.20000000E-01  8.50000000E-01  7.20000000E-01  7.20000000E-01  8.50000000E-01
  8.50000000E-01  8.50000000E-01  7.20000000E-01  7.20000000E-01  8.50000000E-01
  7.20000000E-01  7.20000000E-01  8.50000000E-01  7.20000000E-01  7.20000000E-01
  8.50000000E-01  7.20000000E-01  7.20000000E-01  8.50000000E-01  7.20000000E-01
  8.50000000E-01  8.50000000E-01  8.50000000E-01  7.20000000E-01  7.20000000E-01
  7.20000000E-01  7.20000000E-01  7.20000000E-01  8.50000000E-01  7.20000000E-01
  7.20000000E-01  7.20000000E-01  7.20000000E-01  7.20000000E-01  8.50000000E-01
  8.50000000E-01  7.20000000E-01  8.50000000E-01  7.20000000E-01  7.20000000E-01
  8.50000000E-01  8.50000000E-01  8.50000000E-01  7.20000000E-01  7.20000000E-01
  8.50000000E-01  7.20000000E-01  7.20000000E-01  8.50000000E-01  7.20000000E-01
  7.20000000E-01  8.50000000E-01  7.20000000E-01  7.20000000E-01  8.50000000E-01
  7.20000000E-01  8.50000000E-01  8.50000000E-01  8.50000000E-01  7.20000000E-01
  7.20000000E-01  7.20000000E-01  7.20000000E-01  7.20000000E-01  8.50000000E-01
  7.20000000E-01  7.20000000E-01  7.20000000E-01  7.20000000E-01  7.20000000E-01
  8.50000000E-01  8.50000000E-01  7.20000000E-01  8.50000000E-01  7.20000000E-01
  7.20000000E-01  8.50000000E-01  8.50000000E-01  8.50000000E-01  7.20000000E-01
  7.20000000E-01  8.50000000E-01  7.20000000E-01  7.20000000E-01  8.50000000E-01
  7.20000000E-01  7.20000000E-01  8.50000000E-01  7.20000000E-01  7.20000000E-01
  8.50000000E-01  7.20000000E-01  8.50000000E-01  8.50000000E-01  8.50000000E-01
  7.20000000E-01  7.20000000E-01  7.20000000E-01  7.20000000E-01  7.20000000E-01
  8.50000000E-01  7.20000000E-01  7.20000000E-01  7.20000000E-01  7.20000000E-01
  7.20000000E-01  8.50000000E-01  8.50000000E-01  7.20000000E-01  8.50000000E-01
  7.20000000E-01  7.20000000E-01  8.50000000E-01  8.50000000E-01  8.50000000E-01
  7.20000000E-01  7.20000000E-01  8.50000000E-01  7.20000000E-01  7.20000000E-01
  8.50000000E-01  7.20000000E-01  7.20000000E-01  8.50000000E-01  7.20000000E-01
  7.20000000E-01  8.50000000E-01  7.20000000E-01  8.50000000E-01  8.50000000E-01
  8.50000000E-01  7.20000000E-01  7.20000000E-01  7.20000000E-01  7.20000000E-01
  7.20000000E-01  8.50000000E-01  7.20000000E-01  7.20000000E-01  7.20000000E-01
  7.20000000E-01  7.20000000E-01  8.50000000E-01  8.50000000E-01  7.20000000E-01
  8.50000000E-01  7.20000000E-01  7.20000000E-01  8.50000000E-01  8.50000000E-01
  8.50000000E-01  7.20000000E-01  7.20000000E-01  8.50000000E-01  7.20000000E-01
  7.20000000E-01  8.50000000E-01  7.20000000E-01  7.20000000E-01  8.50000000E-01
  7.20000000E-01  7.20000000E-01  8.50000000E-01  7.20000000E-01  8.50000000E-01
  8.50000000E-01  8.50000000E-01  7.20000000E-01  7.20000000E-01  7.20000000E-01
  7.20000000E-01  7.20000000E-01  8.50000000E-01  7.20000000E-01  7.20000000E-01
  7.20000000E-01  7.20000000E-01  7.20000000E-01  8.50000000E-01  8.50000000E-01
  7.20000000E-01  8.50000000E-01  7.20000000E-01  7.20000000E-01  8.50000000E-01
  8.50000000E-01  8.50000000E-01  7.20000000E-01  7.20000000E-01  8.50000000E-01
  7.20000000E-01  7.20000000E-01  8.50000000E-01  7.20000000E-01  7.20000000E-01
  8.50000000E-01  7.20000000E-01  7.20000000E-01  8.50000000E-01  7.20000000E-01
  8.50000000E-01  8.50000000E-01  8.50000000E-01  7.20000000E-01  7.20000000E-01
  7.20000000E-01  7.20000000E-01  7.20000000E-01  8.50000000E-01  7.20000000E-01
  7.20000000E-01  7.20000000E-01  7.20000000E-01  7.20000000E-01  8.50000000E-01
  8.50000000E-01  7.20000000E-01  8.50000000E-01  7.20000000E-01  7.20000000E-01
  8.50000000E-01  8.50000000E-01  8.50000000E-01  7.20000000E-01  7.20000000E-01
  8.50000000E-01  7.20000000E-01  7.20000000E-01  8.50000000E-01  7.20000000E-01
  7.20000000E-01  8.50000000E-01  7.20000000E-01  7.20000000E-01  8.50000000E-01
  7.20000000E-01  8.50000000E-01  8.50000000E-01  8.50000000E-01  7.20000000E-01
  7.20000000E-01  7.20000000E-01  7.20000000E-01  7.20000000E-01  8.50000000E-01
  7.20000000E-01  7.20000000E-01  7.20000000E-01  7.20000000E-01  7.20000000E-01
  8.50000000E-01  8.50000000E-01  7.20000000E-01  8.50000000E-01  7.20000000E-01
  7.20000000E-01  8.50000000E-01  8.50000000E-01  8.50000000E-01  7.20000000E-01
  7.20000000E-01  8.50000000E-01  7.20000000E-01  7.20000000E-01  8.50000000E-01
  7.20000000E-01  7.20000000E-01  8.50000000E-01  7.20000000E-01  7.20000000E-01
  8.50000000E-01  7.20000000E-01  8.50000000E-01  8.50000000E-01  8.50000000E-01
  7.20000000E-01  7.20000000E-01  7.20000000E-01  7.20000000E-01  7.20000000E-01
  8.50000000E-01  7.20000000E-01  7.20000000E-01  7.20000000E-01  7.20000000E-01
  7.20000000E-01  8.50000000E-01  8.50000000E-01  7.20000000E-01  8.50000000E-01
  7.20000000E-01  7.20000000E-01  8.50000000E-01  8.50000000E-01  8.50000000E-01
  7.20000000E-01  7.20000000E-01  8.50000000E-01  7.20000000E-01  7.20000000E-01
  8.50000000E-01  7.20000000E-01  7.20000000E-01  8.50000000E-01  7.20000000E-01
  7.20000000E-01  8.50000000E-01  7.20000000E-01  8.50000000E-01  8.50000000E-01
  8.50000000E-01  7.20000000E-01  7.20000000E-01  7.20000000E-01  7.20000000E-01
  7.20000000E-01  8.50000000E-01  7.20000000E-01  7.20000000E-01  7.20000000E-01
  7.20000000E-01  7.20000000E-01  8.50000000E-01  8.50000000E-01  7.20000000E-01
  8.50000000E-01  7.20000000E-01  7.20000000E-01  8.50000000E-01  8.50000000E-01
  8.50000000E-01  7.20000000E-01  7.20000000E-01  8.50000000E-01  7.20000000E-01
  7.20000000E-01  8.50000000E-01  7.20000000E-01  7.20000000E-01  8.50000000E-01
  7.20000000E-01  7.20000000E-01  8.50000000E-01  7.20000000E-01  8.50000000E-01
  8.50000000E-01  8.50000000E-01  7.20000000E-01  7.20000000E-01  7.20000000E-01
  7.20000000E-01  7.20000000E-01  8.50000000E-01  7.20000000E-01  7.20000000E-01
  7.20000000E-01  7.20000000E-01  7.20000000E-01  8.50000000E-01  8.50000000E-01
  7.20000000E-01  8.50000000E-01  7.20000000E-01  7.20000000E-01  8.50000000E-01
  8.50000000E-01  8.50000000E-01  7.20000000E-01  7.20000000E-01  8.50000000E-01
  7.20000000E-01  7.20000000E-01  8.50000000E-01  7.20000000E-01  7.20000000E-01
  8.50000000E-01  7.20000000E-01  7.20000000E-01  8.50000000E-01  7.20000000E-01
  8.50000000E-01  8.50000000E-01  8.50000000E-01  7.20000000E-01  7.20000000E-01
  7.20000000E-01  7.20000000E-01  7.20000000E-01  8.50000000E-01  7.20000000E-01
  7.20000000E-01  7.20000000E-01  7.20000000E-01  7.20000000E-01  8.50000000E-01
  8.50000000E-01  7.20000000E-01  8.50000000E-01  7.20000000E-01  7.20000000E-01
  8.50000000E-01  8.50000000E-01  8.50000000E-01  7.20000000E-01  7.20000000E-01
  8.50000000E-01  7.20000000E-01  7.20000000E-01  8.50000000E-01  7.20000000E-01
  7.20000000E-01  8.50000000E-01  7.20000000E-01  7.20000000E-01  8.50000000E-01
  7.20000000E-01  8.50000000E-01  8.50000000E-01  8.50000000E-01  7.20000000E-01
  7.20000000E-01  7.20000000E-01  7.20000000E-01  7.20000000E-01  8.50000000E-01
  7.20000000E-01  7.20000000E-01  7.20000000E-01  7.20000000E-01  7.20000000E-01
  8.50000000E-01  8.50000000E-01  7.20000000E-01  8.50000000E-01  7.20000000E-01
  7.20000000E-01  8.50000000E-01  8.50000000E-01  8.50000000E-01  7.20000000E-01
  7.20000000E-01  8.50000000E-01  7.20000000E-01  7.20000000E-01  8.50000000E-01
  7.20000000E-01  7.20000000E-01  8.50000000E-01  7.20000000E-01  7.20000000E-01
  8.50000000E-01  7.20000000E-01  8.50000000E-01  8.50000000E-01  8.50000000E-01
  7.20000000E-01  7.20000000E-01  7.20000000E-01  7.20000000E-01  7.20000000E-01
  8.50000000E-01  7.20000000E-01  7.20000000E-01  7.20000000E-01  7.20000000E-01
  7.20000000E-01  8.50000000E-01  8.50000000E-01  7.20000000E-01  8.50000000E-01
  7.20000000E-01  7.20000000E-01  8.50000000E-01  8.50000000E-01  8.50000000E-01
  7.20000000E-01  7.20000000E-01  8.50000000E-01  7.20000000E-01  7.20000000E-01
  8.50000000E-01  7.20000000E-01  7.20000000E-01  8.50000000E-01  7.20000000E-01
  7.20000000E-01  8.50000000E-01  7.20000000E-01  8.50000000E-01  8.50000000E-01
  8.50000000E-01  7.20000000E-01  7.20000000E-01  7.20000000E-01  7.20000000E-01
  7.20000000E-01  8.50000000E-01  7.20000000E-01  7.20000000E-01  7.20000000E-01
  7.20000000E-01  7.20000000E-01  8.50000000E-01  8.50000000E-01  7.20000000E-01
  8.50000000E-01  7.20000000E-01  7.20000000E-01  8.50000000E-01  8.50000000E-01
  8.50000000E-01  7.20000000E-01  7.20000000E-01  8.50000000E-01  7.20000000E-01
  7.20000000E-01  8.50000000E-01  7.20000000E-01  7.20000000E-01  8.50000000E-01
  7.20000000E-01  7.20000000E-01  8.50000000E-01  7.20000000E-01  8.50000000E-01
  8.50000000E-01  8.50000000E-01  7.20000000E-01  7.20000000E-01  7.20000000E-01
  7.20000000E-01  7.20000000E-01  8.50000000E-01  7.20000000E-01  7.20000000E-01
  7.20000000E-01  7.20000000E-01  7.20000000E-01  8.50000000E-01  8.50000000E-01
  7.20000000E-01  8.50000000E-01  7.20000000E-01  7.20000000E-01  8.50000000E-01
  8.50000000E-01  8.50000000E-01  7.20000000E-01  7.20000000E-01  8.50000000E-01
  7.20000000E-01  7.20000000E-01  8.50000000E-01  7.20000000E-01  7.20000000E-01
  8.50000000E-01  7.20000000E-01  7.20000000E-01  8.50000000E-01  7.20000000E-01
  8.50000000E-01  8.50000000E-01  8.50000000E-01  7.20000000E-01  7.20000000E-01
  7.20000000E-01  7.20000000E-01  7.20000000E-01  8.50000000E-01  7.20000000E-01
  7.20000000E-01  7.20000000E-01  7.20000000E-01  7.20000000E-01  8.50000000E-01
  8.50000000E-01  7.20000000E-01  8.50000000E-01  7.20000000E-01  7.20000000E-01
  8.50000000E-01  8.50000000E-01  8.50000000E-01  7.20000000E-01  7.20000000E-01
  8.50000000E-01  7.20000000E-01  7.20000000E-01  8.50000000E-01  7.20000000E-01
  7.20000000E-01  8.50000000E-01  7.20000000E-01  7.20000000E-01  8.50000000E-01
  7.20000000E-01  8.50000000E-01  8.50000000E-01  8.50000000E-01  7.20000000E-01
  7.20000000E-01  7.20000000E-01  7.20000000E-01  7.20000000E-01  8.50000000E-01
  7.20000000E-01  7.20000000E-01  7.20000000E-01  7.20000000E-01  7.20000000E-01
  8.50000000E-01  8.50000000E-01  7.20000000E-01  8.50000000E-01  7.20000000E-01
  7.20000000E-01  8.50000000E-01  8.50000000E-01  8.50000000E-01  7.20000000E-01
  7.20000000E-01  8.50000000E-01  7.20000000E-01  7.20000000E-01  8.50000000E-01
  7.20000000E-01  7.20000000E-01  8.50000000E-01  7.20000000E-01  7.20000000E-01
  8.50000000E-01  7.20000000E-01  8.50000000E-01  8.50000000E-01  8.50000000E-01
  7.20000000E-01  7.20000000E-01  7.20000000E-01  7.20000000E-01  7.20000000E-01
  8.50000000E-01  7.20000000E-01  7.20000000E-01  7.20000000E-01  7.20000000E-01
  7.20000000E-01  8.50000000E-01  8.50000000E-01  7.20000000E-01  8.50000000E-01
  7.20000000E-01  7.20000000E-01  8.50000000E-01  8.50000000E-01  8.50000000E-01
  7.20000000E-01  7.20000000E-01  8.50000000E-01  7.20000000E-01  7.20000000E-01
  8.50000000E-01  7.20000000E-01  7.20000000E-01  8.50000000E-01  7.20000000E-01
  7.20000000E-01  8.50000000E-01  7.20000000E-01  8.50000000E-01  8.50000000E-01
  8.50000000E-01  7.20000000E-01  7.20000000E-01  7.20000000E-01  7.20000000E-01
  7.20000000E-01  8.50000000E-01  7.20000000E-01  7.20000000E-01  7.20000000E-01
  7.20000000E-01  7.20000000E-01  8.50000000E-01  8.50000000E-01  7.20000000E-01
  8.50000000E-01  7.20000000E-01  7.20000000E-01  8.50000000E-01  8.50000000E-01
  8.50000000E-01  7.20000000E-01  7.20000000E-01  8.50000000E-01  7.20000000E-01
  7.20000000E-01  8.50000000E-01  7.20000000E-01  7.20000000E-01  8.50000000E-01
  7.20000000E-01  7.20000000E-01  8.50000000E-01  7.20000000E-01  8.50000000E-01
  8.50000000E-01  8.50000000E-01  7.20000000E-01  7.20000000E-01  7.20000000E-01
  7.20000000E-01  7.20000000E-01  8.50000000E-01  7.20000000E-01  7.20000000E-01
  7.20000000E-01  7.20000000E-01  7.20000000E-01  8.50000000E-01  8.50000000E-01
  7.20000000E-01  8.50000000E-01  7.20000000E-01  7.20000000E-01  8.50000000E-01
  8.50000000E-01  8.50000000E-01  7.20000000E-01  7.20000000E-01  8.50000000E-01
  7.20000000E-01  7.20000000E-01  8.50000000E-01  7.20000000E-01  7.20000000E-01
  8.50000000E-01  7.20000000E-01  7.20000000E-01  8.50000000E-01  7.20000000E-01
  8.50000000E-01  8.50000000E-01  8.50000000E-01  7.20000000E-01  7.20000000E-01
  7.20000000E-01  7.20000000E-01  7.20000000E-01  8.50000000E-01  7.20000000E-01
  7.20000000E-01  7.20000000E-01  7.20000000E-01  7.20000000E-01  8.50000000E-01
  8.50000000E-01  7.20000000E-01  8.50000000E-01  7.20000000E-01  7.20000000E-01
  8.50000000E-01  8.50000000E-01  8.50000000E-01  7.20000000E-01  7.20000000E-01
  8.50000000E-01  7.20000000E-01  7.20000000E-01  8.50000000E-01  7.20000000E-01
  7.20000000E-01  8.50000000E-01  7.20000000E-01  7.20000000E-01  8.50000000E-01
  7.20000000E-01  8.50000000E-01  8.50000000E-01  8.50000000E-01  7.20000000E-01
  7.20000000E-01  7.20000000E-01  7.20000000E-01  7.20000000E-01  8.50000000E-01
  7.20000000E-01  7.20000000E-01  7.20000000E-01  7.20000000E-01  7.20000000E-01
  8.50000000E-01  8.50000000E-01  7.20000000E-01  8.50000000E-01  7.20000000E-01
  7.20000000E-01  8.50000000E-01  8.50000000E-01  8.50000000E-01  7.20000000E-01
  7.20000000E-01  8.50000000E-01  7.20000000E-01  7.20000000E-01  8.50000000E-01
  7.20000000E-01  7.20000000E-01  8.50000000E-01  7.20000000E-01  7.20000000E-01
  8.50000000E-01  7.20000000E-01  8.50000000E-01  8.50000000E-01  8.50000000E-01
  7.20000000E-01  7.20000000E-01  7.20000000E-01  7.20000000E-01  7.20000000E-01
  8.50000000E-01  7.20000000E-01  7.20000000E-01  7.20000000E-01  7.20000000E-01
  7.20000000E-01  8.50000000E-01  8.50000000E-01  7.20000000E-01  8.50000000E-01
  7.20000000E-01  7.20000000E-01  8.50000000E-01  8.50000000E-01  8.50000000E-01
  7.20000000E-01  7.20000000E-01  8.50000000E-01  7.20000000E-01  7.20000000E-01
  8.50000000E-01  7.20000000E-01  7.20000000E-01  8.50000000E-01  7.20000000E-01
  7.20000000E-01  8.50000000E-01  7.20000000E-01  8.50000000E-01  8.50000000E-01
  8.50000000E-01  7.20000000E-01  7.20000000E-01  7.20000000E-01  7.20000000E-01
  7.20000000E-01  8.50000000E-01  7.20000000E-01  7.20000000E-01  7.20000000E-01
  7.20000000E-01  7.20000000E-01  8.50000000E-01  8.50000000E-01  7.20000000E-01
  8.50000000E-01  7.20000000E-01  7.20000000E-01  8.50000000E-01  8.50000000E-01
  8.50000000E-01  7.20000000E-01  7.20000000E-01  8.50000000E-01  7.20000000E-01
  7.20000000E-01  8.50000000E-01  7.20000000E-01  7.20000000E-01  8.50000000E-01
  7.20000000E-01  7.20000000E-01  8.50000000E-01  7.20000000E-01  8.50000000E-01
  8.50000000E-01  8.50000000E-01  7.20000000E-01  7.20000000E-01  7.20000000E-01
  7.20000000E-01  7.20000000E-01  8.50000000E-01  7.20000000E-01  7.20000000E-01
  7.20000000E-01  7.20000000E-01  7.20000000E-01  8.50000000E-01  8.50000000E-01
  7.20000000E-01  8.50000000E-01  7.20000000E-01  7.20000000E-01  8.50000000E-01
  8.50000000E-01  8.50000000E-01  7.20000000E-01  7.20000000E-01  8.50000000E-01
  7.20000000E-01  7.20000000E-01  8.50000000E-01  7.20000000E-01  7.20000000E-01
  8.50000000E-01  7.20000000E-01  7.20000000E-01  8.50000000E-01  7.20000000E-01
  8.50000000E-01  8.50000000E-01  8.50000000E-01  7.20000000E-01  7.20000000E-01
  7.20000000E-01  7.20000000E-01  7.20000000E-01  8.50000000E-01  7.20000000E-01
  7.20000000E-01  7.20000000E-01  7.20000000E-01  7.20000000E-01  8.50000000E-01
  8.50000000E-01  7.20000000E-01  8.50000000E-01  7.20000000E-01  7.20000000E-01
  8.50000000E-01  8.50000000E-01  8.50000000E-01  7.20000000E-01  7.20000000E-01
  8.50000000E-01  7.20000000E-01  7.20000000E-01  8.50000000E-01  7.20000000E-01
  7.20000000E-01  8.50000000E-01  7.20000000E-01  7.20000000E-01  8.50000000E-01
  7.20000000E-01  8.50000000E-01  8.50000000E-01  8.50000000E-01  7.20000000E-01
  7.20000000E-01  7.20000000E-01  7.20000000E-01  7.20000000E-01  8.50000000E-01
  7.20000000E-01  7.20000000E-01  7.20000000E-01  7.20000000E-01  7.20000000E-01
  8.50000000E-01  8.50000000E-01  7.20000000E-01  8.50000000E-01  7.20000000E-01
  7.20000000E-01  8.50000000E-01  8.50000000E-01  8.50000000E-01  7.20000000E-01
  7.20000000E-01  8.50000000E-01  7.20000000E-01  7.20000000E-01  8.50000000E-01
  7.20000000E-01  7.20000000E-01  8.50000000E-01  7.20000000E-01  7.20000000E-01
  8.50000000E-01  7.20000000E-01  8.50000000E-01  8.50000000E-01  8.50000000E-01
  7.20000000E-01  7.20000000E-01  7.20000000E-01  7.20000000E-01  7.20000000E-01
  8.50000000E-01  7.20000000E-01  7.20000000E-01  7.20000000E-01  7.20000000E-01
  7.20000000E-01  8.50000000E-01  8.50000000E-01  7.20000000E-01  8.50000000E-01
  7.20000000E-01  7.20000000E-01  8.50000000E-01  8.50000000E-01  8.50000000E-01
  7.20000000E-01  7.20000000E-01  8.50000000E-01  7.20000000E-01  7.20000000E-01
  8.50000000E-01  7.20000000E-01  7.20000000E-01  8.50000000E-01  7.20000000E-01
  7.20000000E-01  8.50000000E-01  7.20000000E-01  8.50000000E-01  8.50000000E-01
  8.50000000E-01  7.20000000E-01  7.20000000E-01  7.20000000E-01  7.20000000E-01
  7.20000000E-01  8.50000000E-01  7.20000000E-01  7.20000000E-01  7.20000000E-01
  7.20000000E-01  7.20000000E-01  8.50000000E-01  8.50000000E-01  7.20000000E-01
  8.50000000E-01  7.20000000E-01  7.20000000E-01  8.50000000E-01  8.50000000E-01
  8.50000000E-01  7.20000000E-01  7.20000000E-01  8.50000000E-01  7.20000000E-01
  7.20000000E-01  8.50000000E-01  7.20000000E-01  7.20000000E-01  8.50000000E-01
  7.20000000E-01  7.20000000E-01  8.50000000E-01  7.20000000E-01  8.50000000E-01
  8.50000000E-01  8.50000000E-01  7.20000000E-01  7.20000000E-01  7.20000000E-01
  7.20000000E-01  7.20000000E-01  8.50000000E-01  7.20000000E-01  7.20000000E-01
  7.20000000E-01  7.20000000E-01  7.20000000E-01  8.50000000E-01  8.50000000E-01
  7.20000000E-01  8.50000000E-01  7.20000000E-01  7.20000000E-01  8.50000000E-01
  8.50000000E-01  8.50000000E-01  7.20000000E-01  7.20000000E-01  8.50000000E-01
  7.20000000E-01  7.20000000E-01  8.50000000E-01  7.20000000E-01  7.20000000E-01
  8.50000000E-01  7.20000000E-01  7.20000000E-01  8.50000000E-01  7.20000000E-01
  8.50000000E-01  8.50000000E-01  8.50000000E-01  7.20000000E-01  7.20000000E-01
  7.20000000E-01  7.20000000E-01  7.20000000E-01  8.50000000E-01  7.20000000E-01
  7.20000000E-01  7.20000000E-01  7.20000000E-01  7.20000000E-01  8.50000000E-01
  8.50000000E-01  7.20000000E-01  8.50000000E-01  7.20000000E-01  7.20000000E-01
  8.50000000E-01  8.50000000E-01  8.50000000E-01  7.20000000E-01  7.20000000E-01
  8.50000000E-01  7.20000000E-01  7.20000000E-01  8.50000000E-01  7.20000000E-01
  7.20000000E-01  8.50000000E-01  7.20000000E-01  7.20000000E-01  8.50000000E-01
  7.20000000E-01  8.50000000E-01  8.50000000E-01  8.50000000E-01  7.20000000E-01
  7.20000000E-01  7.20000000E-01  7.20000000E-01  7.20000000E-01  8.50000000E-01
  7.20000000E-01  7.20000000E-01  7.20000000E-01  7.20000000E-01  7.20000000E-01
  8.50000000E-01  8.50000000E-01  7.20000000E-01  8.50000000E-01  7.20000000E-01
  7.20000000E-01  8.50000000E-01  8.50000000E-01  8.50000000E-01  7.20000000E-01
  7.20000000E-01  8.50000000E-01  7.20000000E-01  7.20000000E-01  8.50000000E-01
  7.20000000E-01  7.20000000E-01  8.50000000E-01  7.20000000E-01  7.20000000E-01
  8.50000000E-01  7.20000000E-01  8.50000000E-01  8.50000000E-01  8.50000000E-01
  7.20000000E-01  7.20000000E-01  7.20000000E-01  7.20000000E-01  7.20000000E-01
  8.50000000E-01  7.20000000E-01  7.20000000E-01  7.20000000E-01  7.20000000E-01
  7.20000000E-01  8.50000000E-01  8.50000000E-01  7.20000000E-01  8.50000000E-01
  7.20000000E-01  7.20000000E-01  8.50000000E-01  8.50000000E-01  8.50000000E-01
  7.20000000E-01  7.20000000E-01  8.50000000E-01  7.20000000E-01  7.20000000E-01
  8.50000000E-01  7.20000000E-01  7.20000000E-01  8.50000000E-01  7.20000000E-01
  7.20000000E-01  8.50000000E-01  7.20000000E-01  8.50000000E-01  8.50000000E-01
  8.50000000E-01  7.20000000E-01  7.20000000E-01  7.20000000E-01  7.20000000E-01
  7.20000000E-01  8.50000000E-01  7.20000000E-01  7.20000000E-01  7.20000000E-01
  7.20000000E-01  7.20000000E-01  8.50000000E-01  8.50000000E-01  7.20000000E-01
  8.50000000E-01  7.20000000E-01  7.20000000E-01  8.50000000E-01  8.50000000E-01
  8.50000000E-01  7.20000000E-01  7.20000000E-01  8.50000000E-01  7.20000000E-01
  7.20000000E-01  8.50000000E-01  7.20000000E-01  7.20000000E-01  8.50000000E-01
  7.20000000E-01  7.20000000E-01  8.50000000E-01  7.20000000E-01  8.50000000E-01
  8.50000000E-01  8.50000000E-01  7.20000000E-01  7.20000000E-01  7.20000000E-01
  7.20000000E-01  7.20000000E-01  8.50000000E-01  7.20000000E-01  7.20000000E-01
  7.20000000E-01  7.20000000E-01  7.20000000E-01  8.50000000E-01  8.50000000E-01
  7.20000000E-01  8.50000000E-01  7.20000000E-01  7.20000000E-01  8.50000000E-01
  8.50000000E-01  8.50000000E-01  7.20000000E-01  7.20000000E-01  8.50000000E-01
  7.20000000E-01  7.20000000E-01  8.50000000E-01  7.20000000E-01  7.20000000E-01
  8.50000000E-01  7.20000000E-01  7.20000000E-01  8.50000000E-01  7.20000000E-01
  8.50000000E-01  8.50000000E-01  8.50000000E-01  7.20000000E-01  7.20000000E-01
  7.20000000E-01  7.20000000E-01  7.20000000E-01  8.50000000E-01  7.20000000E-01
  7.20000000E-01  7.20000000E-01  7.20000000E-01  7.20000000E-01  8.50000000E-01
  8.50000000E-01  7.20000000E-01  8.50000000E-01  7.20000000E-01  7.20000000E-01
  8.50000000E-01  8.50000000E-01  8.50000000E-01  7.20000000E-01  7.20000000E-01
  8.50000000E-01  7.20000000E-01  7.20000000E-01  8.50000000E-01  7.20000000E-01
  7.20000000E-01  8.50000000E-01  7.20000000E-01  7.20000000E-01  8.50000000E-01
  7.20000000E-01  8.50000000E-01  8.50000000E-01  8.50000000E-01  7.20000000E-01
  7.20000000E-01  7.20000000E-01  7.20000000E-01  7.20000000E-01  8.50000000E-01
  7.20000000E-01  7.20000000E-01  7.20000000E-01  7.20000000E-01  7.20000000E-01
  8.50000000E-01  8.50000000E-01  7.20000000E-01  8.50000000E-01  7.20000000E-01
  7.20000000E-01  8.50000000E-01  8.50000000E-01  8.50000000E-01  7.20000000E-01
  7.20000000E-01  8.50000000E-01  7.20000000E-01  7.20000000E-01  8.50000000E-01
  7.20000000E-01  7.20000000E-01  8.50000000E-01  7.20000000E-01  7.20000000E-01
  8.50000000E-01  7.20000000E-01  8.50000000E-01  8.50000000E-01  8.50000000E-01
  7.20000000E-01  7.20000000E-01  7.20000000E-01  7.20000000E-01  7.20000000E-01
  8.50000000E-01  7.20000000E-01  7.20000000E-01  7.20000000E-01  7.20000000E-01
  7.20000000E-01  8.50000000E-01  8.50000000E-01  7.20000000E-01  8.50000000E-01
  7.20000000E-01  7.20000000E-01  8.50000000E-01  8.50000000E-01  8.50000000E-01
  7.20000000E-01  7.20000000E-01  8.50000000E-01  7.20000000E-01  7.20000000E-01
  8.50000000E-01  7.20000000E-01  7.20000000E-01  8.50000000E-01  7.20000000E-01
  7.20000000E-01  8.50000000E-01  7.20000000E-01  8.50000000E-01  8.50000000E-01
  8.50000000E-01  7.20000000E-01  7.20000000E-01  7.20000000E-01  7.20000000E-01
  7.20000000E-01  8.50000000E-01  7.20000000E-01  7.20000000E-01  7.20000000E-01
  7.20000000E-01  7.20000000E-01  8.50000000E-01  8.50000000E-01  7.20000000E-01
  8.50000000E-01  7.20000000E-01  7.20000000E-01  8.50000000E-01  8.50000000E-01
  8.50000000E-01  7.20000000E-01  7.20000000E-01  8.50000000E-01  7.20000000E-01
  7.20000000E-01  8.50000000E-01  7.20000000E-01  7.20000000E-01  8.50000000E-01
  7.20000000E-01  7.20000000E-01  8.50000000E-01  7.20000000E-01  8.50000000E-01
  8.50000000E-01  8.50000000E-01  7.20000000E-01  7.20000000E-01  7.20000000E-01
  7.20000000E-01  7.20000000E-01  8.50000000E-01  7.20000000E-01  7.20000000E-01
  7.20000000E-01  7.20000000E-01  7.20000000E-01  8.50000000E-01  8.50000000E-01
  7.20000000E-01  8.50000000E-01  7.20000000E-01  7.20000000E-01  8.50000000E-01
  8.50000000E-01  8.50000000E-01  7.20000000E-01  7.20000000E-01  8.50000000E-01
  7.20000000E-01  7.20000000E-01  8.50000000E-01  7.20000000E-01  7.20000000E-01
  8.50000000E-01  7.20000000E-01  7.20000000E-01  8.50000000E-01  7.20000000E-01
  8.50000000E-01  8.50000000E-01  8.50000000E-01  7.20000000E-01  7.20000000E-01
  7.20000000E-01  7.20000000E-01  7.20000000E-01  8.50000000E-01  7.20000000E-01
  7.20000000E-01  7.20000000E-01  7.20000000E-01  7.20000000E-01  8.50000000E-01
  8.50000000E-01  7.20000000E-01  8.50000000E-01  7.20000000E-01  7.20000000E-01
  8.50000000E-01  8.50000000E-01  8.50000000E-01  7.20000000E-01  7.20000000E-01
  8.50000000E-01  7.20000000E-01  7.20000000E-01  8.50000000E-01  7.20000000E-01
  7.20000000E-01  8.50000000E-01  7.20000000E-01  7.20000000E-01  8.50000000E-01
  7.20000000E-01  8.50000000E-01  8.50000000E-01  8.50000000E-01  7.20000000E-01
  7.20000000E-01  7.20000000E-01  7.20000000E-01  7.20000000E-01  8.50000000E-01
  7.20000000E-01  7.20000000E-01  7.20000000E-01  7.20000000E-01  7.20000000E-01
  8.50000000E-01  8.50000000E-01  7.20000000E-01  8.50000000E-01  7.20000000E-01
  7.20000000E-01  8.50000000E-01  8.50000000E-01  8.50000000E-01  7.20000000E-01
  7.20000000E-01  8.50000000E-01  7.20000000E-01  7.20000000E-01  8.50000000E-01
  7.20000000E-01  7.20000000E-01  8.50000000E-01  7.20000000E-01  7.20000000E-01
  8.50000000E-01  7.20000000E-01  8.50000000E-01  8.50000000E-01  8.50000000E-01
  7.20000000E-01  7.20000000E-01  7.20000000E-01  7.20000000E-01  7.20000000E-01
  8.50000000E-01  7.20000000E-01  7.20000000E-01  7.20000000E-01  7.20000000E-01
  7.20000000E-01  8.50000000E-01  8.50000000E-01  7.20000000E-01  8.50000000E-01
  7.20000000E-01  7.20000000E-01  8.50000000E-01  8.50000000E-01  8.50000000E-01
  7.20000000E-01  7.20000000E-01  8.50000000E-01  7.20000000E-01  7.20000000E-01
  8.50000000E-01  7.20000000E-01  7.20000000E-01  8.50000000E-01  7.20000000E-01
  7.20000000E-01  8.50000000E-01  7.20000000E-01  8.50000000E-01  8.50000000E-01
  8.50000000E-01  7.20000000E-01  7.20000000E-01  7.20000000E-01  7.20000000E-01
  7.20000000E-01  8.50000000E-01  7.20000000E-01  7.20000000E-01  7.20000000E-01
  7.20000000E-01  7.20000000E-01  8.50000000E-01  8.50000000E-01  7.20000000E-01
  8.50000000E-01  7.20000000E-01  7.20000000E-01  8.50000000E-01  8.50000000E-01
  8.50000000E-01  7.20000000E-01  7.20000000E-01  8.50000000E-01  7.20000000E-01
  7.20000000E-01  8.50000000E-01  7.20000000E-01  7.20000000E-01  8.50000000E-01
  7.20000000E-01  7.20000000E-01  8.50000000E-01  7.20000000E-01  8.50000000E-01
  8.50000000E-01  8.50000000E-01  7.20000000E-01  7.20000000E-01  7.20000000E-01
  7.20000000E-01  7.20000000E-01  8.50000000E-01  7.20000000E-01  7.20000000E-01
  7.20000000E-01  7.20000000E-01  7.20000000E-01  8.50000000E-01  8.50000000E-01
  7.20000000E-01  8.50000000E-01  7.20000000E-01  7.20000000E-01  8.50000000E-01
  8.50000000E-01  8.50000000E-01  7.20000000E-01  7.20000000E-01  8.50000000E-01
  7.20000000E-01  7.20000000E-01  8.50000000E-01  7.20000000E-01  7.20000000E-01
  8.50000000E-01  7.20000000E-01  7.20000000E-01  8.50000000E-01  7.20000000E-01
  8.50000000E-01  8.50000000E-01  8.50000000E-01  7.20000000E-01  7.20000000E-01
  7.20000000E-01  7.20000000E-01  7.20000000E-01  8.50000000E-01  7.20000000E-01
  7.20000000E-01  7.20000000E-01  7.20000000E-01  7.20000000E-01  8.50000000E-01
  8.50000000E-01  7.20000000E-01  8.50000000E-01  7.20000000E-01  7.20000000E-01
  8.50000000E-01  8.50000000E-01  8.50000000E-01  7.20000000E-01  7.20000000E-01
  8.50000000E-01  7.20000000E-01  7.20000000E-01  8.50000000E-01  7.20000000E-01
  7.20000000E-01  8.50000000E-01  7.20000000E-01  7.20000000E-01  8.50000000E-01
  7.20000000E-01  8.50000000E-01  8.50000000E-01  8.50000000E-01  7.20000000E-01
  7.20000000E-01  7.20000000E-01  7.20000000E-01  7.20000000E-01  8.50000000E-01
  7.20000000E-01  7.20000000E-01  7.20000000E-01  7.20000000E-01  7.20000000E-01
  8.50000000E-01  8.50000000E-01  7.20000000E-01  8.50000000E-01  7.20000000E-01
  7.20000000E-01  8.50000000E-01  8.50000000E-01  8.50000000E-01  7.20000000E-01
  7.20000000E-01  8.50000000E-01  7.20000000E-01  7.20000000E-01  8.50000000E-01
  7.20000000E-01  7.20000000E-01  8.50000000E-01  7.20000000E-01  7.20000000E-01
  8.50000000E-01  7.20000000E-01  8.50000000E-01  8.50000000E-01  8.50000000E-01
  7.20000000E-01  7.20000000E-01  7.20000000E-01  7.20000000E-01  7.20000000E-01
  8.50000000E-01  7.20000000E-01  7.20000000E-01  7.20000000E-01  7.20000000E-01
  7.20000000E-01  8.50000000E-01  8.50000000E-01  7.20000000E-01  8.50000000E-01
  7.20000000E-01  7.20000000E-01  8.50000000E-01  8.50000000E-01  8.50000000E-01
  7.20000000E-01  7.20000000E-01  8.50000000E-01  7.20000000E-01  7.20000000E-01
  8.50000000E-01  7.20000000E-01  7.20000000E-01  8.50000000E-01  7.20000000E-01
  7.20000000E-01  8.50000000E-01  7.20000000E-01  8.50000000E-01  8.50000000E-01
  8.50000000E-01  7.20000000E-01  7.20000000E-01  7.20000000E-01  7.20000000E-01
  7.20000000E-01  8.50000000E-01  7.20000000E-01  7.20000000E-01  7.20000000E-01
  7.20000000E-01  7.20000000E-01  8.50000000E-01  8.50000000E-01  7.20000000E-01
  8.50000000E-01  7.20000000E-01  7.20000000E-01  8.50000000E-01  8.50000000E-01
  8.50000000E-01  7.20000000E-01  7.20000000E-01  8.50000000E-01  7.20000000E-01
  7.20000000E-01  8.50000000E-01  7.20000000E-01  7.20000000E-01  8.50000000E-01
  7.20000000E-01  7.20000000E-01  8.50000000E-01  7.20000000E-01  8.50000000E-01
  8.50000000E-01  8.50000000E-01  7.20000000E-01  7.20000000E-01  7.20000000E-01
  7.20000000E-01  7.20000000E-01  8.50000000E-01  7.20000000E-01  7.20000000E-01
  7.20000000E-01  7.20000000E-01  7.20000000E-01  8.50000000E-01  8.50000000E-01
  7.20000000E-01  8.50000000E-01  7.20000000E-01  7.20000000E-01  8.50000000E-01
  8.50000000E-01  8.50000000E-01  7.20000000E-01  7.20000000E-01  8.50000000E-01
  7.20000000E-01  7.20000000E-01  8.50000000E-01  7.20000000E-01  7.20000000E-01
  8.50000000E-01  7.20000000E-01  7.20000000E-01  8.50000000E-01  7.20000000E-01
  8.50000000E-01  8.50000000E-01  8.50000000E-01  7.20000000E-01  7.20000000E-01
  7.20000000E-01  7.20000000E-01  7.20000000E-01  8.50000000E-01  7.20000000E-01
  7.20000000E-01  7.20000000E-01  7.20000000E-01  7.20000000E-01  8.50000000E-01
  8.50000000E-01  7.20000000E-01  8.50000000E-01  7.20000000E-01  7.20000000E-01
  8.50000000E-01  8.50000000E-01  8.50000000E-01  7.20000000E-01  7.20000000E-01
  8.50000000E-01  7.20000000E-01  7.20000000E-01  8.50000000E-01  7.20000000E-01
  7.20000000E-01  8.50000000E-01  7.20000000E-01  7.20000000E-01  8.50000000E-01
  7.20000000E-01  8.50000000E-01  8.50000000E-01  8.50000000E-01  7.20000000E-01
  7.20000000E-01  7.20000000E-01  7.20000000E-01  7.20000000E-01  8.50000000E-01
  7.20000000E-01  7.20000000E-01  7.20000000E-01  7.20000000E-01  7.20000000E-01
  8.50000000E-01  8.50000000E-01  7.20000000E-01  8.50000000E-01  7.20000000E-01
  7.20000000E-01  8.50000000E-01  8.50000000E-01  8.50000000E-01  7.20000000E-01
  7.20000000E-01  8.50000000E-01  7.20000000E-01  7.20000000E-01  8.50000000E-01
  7.20000000E-01  7.20000000E-01  8.50000000E-01  7.20000000E-01  7.20000000E-01
  8.50000000E-01  7.20000000E-01  8.50000000E-01  8.50000000E-01  8.50000000E-01
  7.20000000E-01  7.20000000E-01  7.20000000E-01  7.20000000E-01  7.20000000E-01
  8.50000000E-01  7.20000000E-01  7.20000000E-01  7.20000000E-01  7.20000000E-01
  7.20000000E-01  8.50000000E-01  8.50000000E-01  7.20000000E-01  8.50000000E-01
  7.20000000E-01  7.20000000E-01  8.50000000E-01  8.50000000E-01  8.50000000E-01
  7.20000000E-01  7.20000000E-01  8.50000000E-01  7.20000000E-01  7.20000000E-01
  8.50000000E-01  7.20000000E-01  7.20000000E-01  8.50000000E-01  7.20000000E-01
  7.20000000E-01  8.50000000E-01  7.20000000E-01  8.50000000E-01  8.50000000E-01
  8.50000000E-01  7.20000000E-01  7.20000000E-01  7.20000000E-01  7.20000000E-01
  7.20000000E-01  8.50000000E-01  7.20000000E-01  7.20000000E-01  7.20000000E-01
  7.20000000E-01  7.20000000E-01  8.50000000E-01  8.50000000E-01  7.20000000E-01
  8.50000000E-01  7.20000000E-01  7.20000000E-01  8.50000000E-01  8.50000000E-01
  8.50000000E-01  7.20000000E-01  7.20000000E-01  8.50000000E-01  7.20000000E-01
  7.20000000E-01  8.50000000E-01  7.20000000E-01  7.20000000E-01  8.50000000E-01
  7.20000000E-01  7.20000000E-01  8.50000000E-01  7.20000000E-01  8.50000000E-01
  8.50000000E-01  8.50000000E-01  7.20000000E-01  7.20000000E-01  7.20000000E-01
  7.20000000E-01  7.20000000E-01  8.50000000E-01  7.20000000E-01  7.20000000E-01
  7.20000000E-01  7.20000000E-01  7.20000000E-01  8.50000000E-01  8.50000000E-01
  7.20000000E-01  8.50000000E-01  7.20000000E-01  7.20000000E-01  8.50000000E-01
  8.50000000E-01  8.50000000E-01  7.20000000E-01  7.20000000E-01  8.50000000E-01
  7.20000000E-01  7.20000000E-01  8.50000000E-01  7.20000000E-01  7.20000000E-01
  8.50000000E-01  7.20000000E-01  7.20000000E-01  8.50000000E-01  7.20000000E-01
  8.50000000E-01  8.50000000E-01  8.50000000E-01  7.20000000E-01  7.20000000E-01
  7.20000000E-01  7.20000000E-01  7.20000000E-01  8.50000000E-01  7.20000000E-01
  7.20000000E-01  7.20000000E-01  7.20000000E-01  7.20000000E-01  8.50000000E-01
  8.50000000E-01  7.20000000E-01  8.50000000E-01  7.20000000E-01  7.20000000E-01
  8.50000000E-01  8.50000000E-01  8.50000000E-01  7.20000000E-01  7.20000000E-01
  8.50000000E-01  7.20000000E-01  7.20000000E-01  8.50000000E-01  7.20000000E-01
  7.20000000E-01  8.50000000E-01  7.20000000E-01  7.20000000E-01  8.50000000E-01
  7.20000000E-01  8.50000000E-01  8.50000000E-01  8.50000000E-01  7.20000000E-01
  7.20000000E-01  7.20000000E-01  7.20000000E-01  7.20000000E-01  8.50000000E-01
  7.20000000E-01  7.20000000E-01  7.20000000E-01  7.20000000E-01  7.20000000E-01
  8.50000000E-01  8.50000000E-01  7.20000000E-01  8.50000000E-01  7.20000000E-01
  7.20000000E-01  8.50000000E-01  8.50000000E-01  8.50000000E-01  7.20000000E-01
  7.20000000E-01  8.50000000E-01  7.20000000E-01  7.20000000E-01  8.50000000E-01
  7.20000000E-01  7.20000000E-01  8.50000000E-01  7.20000000E-01  7.20000000E-01
  8.50000000E-01  7.20000000E-01  8.50000000E-01  8.50000000E-01  8.50000000E-01
  7.20000000E-01  7.20000000E-01  7.20000000E-01  7.20000000E-01  7.20000000E-01
  8.50000000E-01  7.20000000E-01  7.20000000E-01  7.20000000E-01  7.20000000E-01
  7.20000000E-01  8.50000000E-01  8.50000000E-01  7.20000000E-01  8.50000000E-01
  7.20000000E-01  7.20000000E-01  8.50000000E-01  8.50000000E-01  8.50000000E-01
  7.20000000E-01  7.20000000E-01  8.50000000E-01  7.20000000E-01  7.20000000E-01
  8.50000000E-01  7.20000000E-01  7.20000000E-01  8.50000000E-01  7.20000000E-01
  7.20000000E-01  8.50000000E-01  7.20000000E-01  8.50000000E-01  8.50000000E-01
  8.50000000E-01  7.20000000E-01  7.20000000E-01  7.20000000E-01  7.20000000E-01
  7.20000000E-01  8.50000000E-01  7.20000000E-01  7.20000000E-01  7.20000000E-01
  7.20000000E-01  7.20000000E-01  8.50000000E-01  8.50000000E-01  7.20000000E-01
  8.50000000E-01  7.20000000E-01  7.20000000E-01  8.50000000E-01  8.50000000E-01
  8.50000000E-01  7.20000000E-01  7.20000000E-01  8.50000000E-01  7.20000000E-01
  7.20000000E-01  8.50000000E-01  7.20000000E-01  7.20000000E-01  8.50000000E-01
  7.20000000E-01  7.20000000E-01  8.50000000E-01  7.20000000E-01  8.50000000E-01
  8.50000000E-01  8.50000000E-01  7.20000000E-01  7.20000000E-01  7.20000000E-01
  7.20000000E-01  7.20000000E-01  8.50000000E-01  7.20000000E-01  7.20000000E-01
  7.20000000E-01  7.20000000E-01  7.20000000E-01  8.50000000E-01  8.50000000E-01
  7.20000000E-01  8.50000000E-01  7.20000000E-01  7.20000000E-01  8.50000000E-01
  8.50000000E-01  8.50000000E-01  7.20000000E-01  7.20000000E-01  8.50000000E-01
  7.20000000E-01  7.20000000E-01  8.50000000E-01  7.20000000E-01  7.20000000E-01
  8.50000000E-01  7.20000000E-01  7.20000000E-01  8.50000000E-01  7.20000000E-01
  8.50000000E-01  8.50000000E-01  8.50000000E-01  7.20000000E-01  7.20000000E-01
  7.20000000E-01  7.20000000E-01  7.20000000E-01  8.50000000E-01  7.20000000E-01
  7.20000000E-01  7.20000000E-01  7.20000000E-01  7.20000000E-01  8.50000000E-01
  8.50000000E-01  7.20000000E-01  8.50000000E-01  7.20000000E-01  7.20000000E-01
  8.50000000E-01  8.50000000E-01  8.50000000E-01  7.20000000E-01  7.20000000E-01
  8.50000000E-01  7.20000000E-01  7.20000000E-01  8.50000000E-01  7.20000000E-01
  7.20000000E-01  8.50000000E-01  7.20000000E-01  7.20000000E-01  8.50000000E-01
  7.20000000E-01  8.50000000E-01  8.50000000E-01  8.50000000E-01  7.20000000E-01
  7.20000000E-01  7.20000000E-01  7.20000000E-01  7.20000000E-01  8.50000000E-01
  7.20000000E-01  7.20000000E-01  7.20000000E-01  7.20000000E-01  7.20000000E-01
  8.50000000E-01  8.50000000E-01  7.20000000E-01  8.50000000E-01  7.20000000E-01
  7.20000000E-01  8.50000000E-01  8.50000000E-01  8.50000000E-01  7.20000000E-01
  7.20000000E-01  8.50000000E-01  7.20000000E-01  7.20000000E-01  8.50000000E-01
  7.20000000E-01  7.20000000E-01  8.50000000E-01  7.20000000E-01  7.20000000E-01
  8.50000000E-01  7.20000000E-01  8.50000000E-01  8.50000000E-01  8.50000000E-01
  7.20000000E-01  7.20000000E-01  7.20000000E-01  7.20000000E-01  7.20000000E-01
  8.50000000E-01  7.20000000E-01  7.20000000E-01  7.20000000E-01  7.20000000E-01
  7.20000000E-01  8.50000000E-01  8.50000000E-01  7.20000000E-01  8.50000000E-01
  7.20000000E-01  7.20000000E-01  8.50000000E-01  8.50000000E-01  8.50000000E-01
  7.20000000E-01  7.20000000E-01  8.50000000E-01  7.20000000E-01  7.20000000E-01
  8.50000000E-01  7.20000000E-01  7.20000000E-01  8.50000000E-01  7.20000000E-01
  7.20000000E-01  8.50000000E-01  7.20000000E-01  8.50000000E-01  8.50000000E-01
  8.50000000E-01  7.20000000E-01  7.20000000E-01  7.20000000E-01  7.20000000E-01
  7.20000000E-01  8.50000000E-01  7.20000000E-01  7.20000000E-01  7.20000000E-01
  7.20000000E-01  7.20000000E-01  8.50000000E-01  8.50000000E-01  7.20000000E-01
  8.50000000E-01  7.20000000E-01  7.20000000E-01  8.50000000E-01  8.50000000E-01
  8.50000000E-01  7.20000000E-01  7.20000000E-01  8.50000000E-01  7.20000000E-01
  7.20000000E-01  8.50000000E-01  7.20000000E-01  7.20000000E-01  8.50000000E-01
  7.20000000E-01  7.20000000E-01  8.50000000E-01  7.20000000E-01  8.50000000E-01
  8.50000000E-01  8.50000000E-01  7.20000000E-01  7.20000000E-01  7.20000000E-01
  7.20000000E-01  7.20000000E-01  8.50000000E-01  7.20000000E-01  7.20000000E-01
  7.20000000E-01  7.20000000E-01  7.20000000E-01  8.50000000E-01  8.50000000E-01
  7.20000000E-01  8.50000000E-01  7.20000000E-01  7.20000000E-01  8.50000000E-01
  8.50000000E-01  8.50000000E-01  7.20000000E-01  7.20000000E-01  8.50000000E-01
  7.20000000E-01  7.20000000E-01  8.50000000E-01  7.20000000E-01  7.20000000E-01
  8.50000000E-01  7.20000000E-01  7.20000000E-01  8.50000000E-01  7.20000000E-01
  8.50000000E-01  8.50000000E-01  8.50000000E-01  7.20000000E-01  7.20000000E-01
  7.20000000E-01  7.20000000E-01  7.20000000E-01  8.50000000E-01  7.20000000E-01
  7.20000000E-01  7.20000000E-01  7.20000000E-01  7.20000000E-01  8.50000000E-01
  8.50000000E-01  7.20000000E-01  8.50000000E-01  7.20000000E-01  7.20000000E-01
  8.50000000E-01  8.50000000E-01  8.50000000E-01  7.20000000E-01  7.20000000E-01
  8.50000000E-01  7.20000000E-01  7.20000000E-01  8.50000000E-01  7.20000000E-01
  7.20000000E-01  8.50000000E-01  7.20000000E-01  7.20000000E-01  8.50000000E-01
  7.20000000E-01  8.50000000E-01  8.50000000E-01  8.50000000E-01  7.20000000E-01
  7.20000000E-01  7.20000000E-01  7.20000000E-01  7.20000000E-01  8.50000000E-01
  7.20000000E-01  7.20000000E-01  7.20000000E-01  7.20000000E-01  7.20000000E-01
  8.50000000E-01  8.50000000E-01  7.20000000E-01  8.50000000E-01  7.20000000E-01
  7.20000000E-01  8.50000000E-01  8.50000000E-01  8.50000000E-01  7.20000000E-01
  7.20000000E-01  8.50000000E-01  7.20000000E-01  7.20000000E-01  8.50000000E-01
  7.20000000E-01  7.20000000E-01  8.50000000E-01  7.20000000E-01  7.20000000E-01
  8.50000000E-01  7.20000000E-01  8.50000000E-01  8.50000000E-01  8.50000000E-01
  7.20000000E-01  7.20000000E-01  7.20000000E-01  7.20000000E-01  7.20000000E-01
  8.50000000E-01  7.20000000E-01  7.20000000E-01  7.20000000E-01  7.20000000E-01
  7.20000000E-01  8.50000000E-01  8.50000000E-01  7.20000000E-01  8.50000000E-01
  7.20000000E-01  7.20000000E-01  8.50000000E-01  8.50000000E-01  8.50000000E-01
  7.20000000E-01  7.20000000E-01  8.50000000E-01  7.20000000E-01  7.20000000E-01
  8.50000000E-01  7.20000000E-01  7.20000000E-01  8.50000000E-01  7.20000000E-01
  7.20000000E-01  8.50000000E-01  7.20000000E-01  8.50000000E-01  8.50000000E-01
  8.50000000E-01  7.20000000E-01  7.20000000E-01  7.20000000E-01  7.20000000E-01
  7.20000000E-01  8.50000000E-01  7.20000000E-01  7.20000000E-01  7.20000000E-01
  7.20000000E-01  7.20000000E-01  8.50000000E-01  8.50000000E-01  7.20000000E-01
  8.50000000E-01  7.20000000E-01  7.20000000E-01  8.50000000E-01  8.50000000E-01
  8.50000000E-01  7.20000000E-01  7.20000000E-01  8.50000000E-01  7.20000000E-01
  7.20000000E-01  8.50000000E-01  7.20000000E-01  7.20000000E-01  8.50000000E-01
  7.20000000E-01  7.20000000E-01  8.50000000E-01  7.20000000E-01  8.50000000E-01
  8.50000000E-01  8.50000000E-01  7.20000000E-01  7.20000000E-01  7.20000000E-01
  7.20000000E-01  7.20000000E-01  8.50000000E-01  7.20000000E-01  7.20000000E-01
  7.20000000E-01  7.20000000E-01  7.20000000E-01  8.50000000E-01  8.50000000E-01
  7.20000000E-01  8.50000000E-01  7.20000000E-01  7.20000000E-01  8.50000000E-01
  8.50000000E-01  8.50000000E-01  7.20000000E-01  7.20000000E-01  8.50000000E-01
  7.20000000E-01  7.20000000E-01  8.50000000E-01  7.20000000E-01  7.20000000E-01
  8.50000000E-01  7.20000000E-01  7.20000000E-01  8.50000000E-01  7.20000000E-01
  8.50000000E-01  8.50000000E-01  8.50000000E-01  7.20000000E-01  7.20000000E-01
  7.20000000E-01  7.20000000E-01  7.20000000E-01  8.50000000E-01  7.20000000E-01
  7.20000000E-01  7.20000000E-01  7.20000000E-01  7.20000000E-01  8.50000000E-01
  8.50000000E-01  7.20000000E-01  8.50000000E-01  7.20000000E-01  7.20000000E-01
  8.50000000E-01  8.50000000E-01  8.50000000E-01  7.20000000E-01  7.20000000E-01
  8.50000000E-01  7.20000000E-01  7.20000000E-01  8.50000000E-01  7.20000000E-01
  7.20000000E-01  8.50000000E-01  7.20000000E-01  7.20000000E-01  8.50000000E-01
  7.20000000E-01  8.50000000E-01  8.50000000E-01  8.50000000E-01  7.20000000E-01
  7.20000000E-01  7.20000000E-01  7.20000000E-01  7.20000000E-01  8.50000000E-01
  7.20000000E-01  7.20000000E-01  7.20000000E-01  7.20000000E-01  7.20000000E-01
  8.50000000E-01  8.50000000E-01  7.20000000E-01  8.50000000E-01  7.20000000E-01
  7.20000000E-01  8.50000000E-01  8.50000000E-01  8.50000000E-01  7.20000000E-01
  7.20000000E-01  8.50000000E-01  7.20000000E-01  7.20000000E-01  8.50000000E-01
  7.20000000E-01  7.20000000E-01  8.50000000E-01  7.20000000E-01  7.20000000E-01
  8.50000000E-01  7.20000000E-01  8.50000000E-01  8.50000000E-01  8.50000000E-01
  7.20000000E-01  7.20000000E-01  7.20000000E-01  7.20000000E-01  7.20000000E-01
  8.50000000E-01  7.20000000E-01  7.20000000E-01  7.20000000E-01  7.20000000E-01
  7.20000000E-01  8.50000000E-01  8.50000000E-01  7.20000000E-01  8.50000000E-01
  7.20000000E-01  7.20000000E-01  8.50000000E-01  8.50000000E-01  8.50000000E-01
  7.20000000E-01  7.20000000E-01  8.50000000E-01  7.20000000E-01  7.20000000E-01
  8.50000000E-01  7.20000000E-01  7.20000000E-01  8.50000000E-01  7.20000000E-01
  7.20000000E-01  8.50000000E-01  7.20000000E-01  8.50000000E-01  8.50000000E-01
  8.50000000E-01  7.20000000E-01  7.20000000E-01  7.20000000E-01  7.20000000E-01
  7.20000000E-01  8.50000000E-01  7.20000000E-01  7.20000000E-01  7.20000000E-01
  7.20000000E-01  7.20000000E-01  8.50000000E-01  8.50000000E-01  7.20000000E-01
  8.50000000E-01  7.20000000E-01  7.20000000E-01  8.50000000E-01  8.50000000E-01
  8.50000000E-01  7.20000000E-01  7.20000000E-01  8.50000000E-01  7.20000000E-01
  7.20000000E-01  8.50000000E-01  7.20000000E-01  7.20000000E-01  8.50000000E-01
  7.20000000E-01  7.20000000E-01  8.50000000E-01  7.20000000E-01  8.50000000E-01
  8.50000000E-01  8.50000000E-01  7.20000000E-01  7.20000000E-01  7.20000000E-01
  7.20000000E-01  7.20000000E-01  8.50000000E-01  7.20000000E-01  7.20000000E-01
  7.20000000E-01  7.20000000E-01  7.20000000E-01  8.50000000E-01  8.50000000E-01
  7.20000000E-01  8.50000000E-01  7.20000000E-01  7.20000000E-01  8.50000000E-01
  8.50000000E-01  8.50000000E-01  7.20000000E-01  7.20000000E-01  8.50000000E-01
  7.20000000E-01  7.20000000E-01  8.50000000E-01  7.20000000E-01  7.20000000E-01
  8.50000000E-01  7.20000000E-01  7.20000000E-01  8.50000000E-01  7.20000000E-01
  8.50000000E-01  8.50000000E-01  8.50000000E-01  7.20000000E-01  7.20000000E-01
  7.20000000E-01  7.20000000E-01  7.20000000E-01  8.50000000E-01  7.20000000E-01
  7.20000000E-01  7.20000000E-01  7.20000000E-01  7.20000000E-01  8.50000000E-01
  8.50000000E-01  7.20000000E-01  8.50000000E-01  7.20000000E-01  7.20000000E-01
  8.50000000E-01  8.50000000E-01  8.50000000E-01  7.20000000E-01  7.20000000E-01
  8.50000000E-01  7.20000000E-01  7.20000000E-01  8.50000000E-01  7.20000000E-01
  7.20000000E-01  8.50000000E-01  7.20000000E-01  7.20000000E-01  8.50000000E-01
  7.20000000E-01  8.50000000E-01  8.50000000E-01  8.50000000E-01  7.20000000E-01
  7.20000000E-01  7.20000000E-01  7.20000000E-01  7.20000000E-01  8.50000000E-01
  7.20000000E-01  7.20000000E-01  7.20000000E-01  7.20000000E-01  7.20000000E-01
  8.50000000E-01  8.50000000E-01  7.20000000E-01  8.50000000E-01  7.20000000E-01
  7.20000000E-01  8.50000000E-01  8.50000000E-01  8.50000000E-01  7.20000000E-01
  7.20000000E-01  8.50000000E-01  7.20000000E-01  7.20000000E-01  8.50000000E-01
  7.20000000E-01  7.20000000E-01  8.50000000E-01  7.20000000E-01  7.20000000E-01
  8.50000000E-01  7.20000000E-01  8.50000000E-01  8.50000000E-01  8.50000000E-01
  7.20000000E-01  7.20000000E-01  7.20000000E-01  7.20000000E-01  7.20000000E-01
  8.50000000E-01  7.20000000E-01  7.20000000E-01  7.20000000E-01  7.20000000E-01
  7.20000000E-01  8.50000000E-01  8.50000000E-01  7.20000000E-01  8.50000000E-01
  7.20000000E-01  7.20000000E-01  8.50000000E-01  8.50000000E-01  8.50000000E-01
  7.20000000E-01  7.20000000E-01  8.50000000E-01  7.20000000E-01  7.20000000E-01
  8.50000000E-01  7.20000000E-01  7.20000000E-01  8.50000000E-01  7.20000000E-01
  7.20000000E-01  8.50000000E-01  7.20000000E-01  8.50000000E-01  8.50000000E-01
  8.50000000E-01  7.20000000E-01  7.20000000E-01  7.20000000E-01  7.20000000E-01
  7.20000000E-01  8.50000000E-01  7.20000000E-01  7.20000000E-01  7.20000000E-01
  7.20000000E-01  7.20000000E-01  8.50000000E-01  8.50000000E-01  7.20000000E-01
  8.50000000E-01  7.20000000E-01  7.20000000E-01  8.50000000E-01  8.50000000E-01
  8.50000000E-01  7.20000000E-01  7.20000000E-01  8.50000000E-01  7.20000000E-01
  7.20000000E-01  8.50000000E-01  7.20000000E-01  7.20000000E-01  8.50000000E-01
  7.20000000E-01  7.20000000E-01  8.50000000E-01  7.20000000E-01  8.50000000E-01
  8.50000000E-01  8.50000000E-01  7.20000000E-01  7.20000000E-01  7.20000000E-01
  7.20000000E-01  7.20000000E-01  8.50000000E-01  7.20000000E-01  7.20000000E-01
  7.20000000E-01  7.20000000E-01  7.20000000E-01  8.50000000E-01  8.50000000E-01
  7.20000000E-01  8.50000000E-01  7.20000000E-01  7.20000000E-01  8.50000000E-01
  8.50000000E-01  8.50000000E-01  7.20000000E-01  7.20000000E-01  8.50000000E-01
  7.20000000E-01  7.20000000E-01  8.50000000E-01  7.20000000E-01  7.20000000E-01
  8.50000000E-01  7.20000000E-01  7.20000000E-01  8.50000000E-01  7.20000000E-01
  8.50000000E-01  8.50000000E-01  8.50000000E-01  7.20000000E-01  7.20000000E-01
  7.20000000E-01  7.20000000E-01  7.20000000E-01  8.50000000E-01  7.20000000E-01
  7.20000000E-01  7.20000000E-01  7.20000000E-01  7.20000000E-01  8.50000000E-01
  8.50000000E-01  7.20000000E-01  8.50000000E-01  7.20000000E-01  7.20000000E-01
  8.50000000E-01  8.50000000E-01  8.50000000E-01  7.20000000E-01  7.20000000E-01
  8.50000000E-01  7.20000000E-01  7.20000000E-01  8.50000000E-01  7.20000000E-01
  7.20000000E-01  8.50000000E-01  7.20000000E-01  7.20000000E-01  8.50000000E-01
  7.20000000E-01  8.50000000E-01  8.50000000E-01  8.50000000E-01  7.20000000E-01
  7.20000000E-01  7.20000000E-01  7.20000000E-01  7.20000000E-01  8.50000000E-01
  7.20000000E-01  7.20000000E-01  7.20000000E-01  7.20000000E-01  7.20000000E-01
  8.50000000E-01  8.50000000E-01  7.20000000E-01  8.50000000E-01  7.20000000E-01
  7.20000000E-01  8.50000000E-01  8.50000000E-01  8.50000000E-01  7.20000000E-01
  7.20000000E-01  8.50000000E-01  7.20000000E-01  7.20000000E-01  8.50000000E-01
  7.20000000E-01  7.20000000E-01  8.50000000E-01  7.20000000E-01  7.20000000E-01
  8.50000000E-01  7.20000000E-01  8.50000000E-01  8.50000000E-01  8.50000000E-01
  7.20000000E-01  7.20000000E-01  7.20000000E-01  7.20000000E-01  7.20000000E-01
  8.50000000E-01  7.20000000E-01  7.20000000E-01  7.20000000E-01  7.20000000E-01
  7.20000000E-01  8.50000000E-01  8.50000000E-01  7.20000000E-01  8.50000000E-01
  7.20000000E-01  7.20000000E-01  8.50000000E-01  8.50000000E-01  8.50000000E-01
  7.20000000E-01  7.20000000E-01  8.50000000E-01  7.20000000E-01  7.20000000E-01
  8.50000000E-01  7.20000000E-01  7.20000000E-01  8.50000000E-01  7.20000000E-01
  7.20000000E-01  8.50000000E-01  7.20000000E-01  8.50000000E-01  8.50000000E-01
  8.50000000E-01  7.20000000E-01  7.20000000E-01  7.20000000E-01  7.20000000E-01
  7.20000000E-01  8.50000000E-01  7.20000000E-01  7.20000000E-01  7.20000000E-01
  7.20000000E-01  7.20000000E-01  8.50000000E-01  8.50000000E-01  7.20000000E-01
  8.50000000E-01  7.20000000E-01  7.20000000E-01  8.50000000E-01  8.50000000E-01
  8.50000000E-01  7.20000000E-01  7.20000000E-01  8.50000000E-01  7.20000000E-01
  7.20000000E-01  8.50000000E-01  7.20000000E-01  7.20000000E-01  8.50000000E-01
  7.20000000E-01  7.20000000E-01  8.50000000E-01  7.20000000E-01  8.50000000E-01
  8.50000000E-01  8.50000000E-01  7.20000000E-01  7.20000000E-01  7.20000000E-01
  7.20000000E-01  7.20000000E-01  8.50000000E-01  7.20000000E-01  7.20000000E-01
  7.20000000E-01  7.20000000E-01  7.20000000E-01  8.50000000E-01  8.50000000E-01
  7.20000000E-01  8.50000000E-01  7.20000000E-01  7.20000000E-01  8.50000000E-01
  8.50000000E-01  8.50000000E-01  7.20000000E-01  7.20000000E-01  8.50000000E-01
  7.20000000E-01  7.20000000E-01  8.50000000E-01  7.20000000E-01  7.20000000E-01
  8.50000000E-01  7.20000000E-01  7.20000000E-01  8.50000000E-01  7.20000000E-01
  8.50000000E-01  8.50000000E-01  8.50000000E-01  7.20000000E-01  7.20000000E-01
  7.20000000E-01  7.20000000E-01  7.20000000E-01  8.50000000E-01  7.20000000E-01
  7.20000000E-01  7.20000000E-01  7.20000000E-01  7.20000000E-01  8.50000000E-01
  8.50000000E-01  7.20000000E-01  8.50000000E-01  7.20000000E-01  7.20000000E-01
  8.50000000E-01  8.50000000E-01  8.50000000E-01  7.20000000E-01  7.20000000E-01
  8.50000000E-01  7.20000000E-01  7.20000000E-01  8.50000000E-01  7.20000000E-01
  7.20000000E-01  8.50000000E-01  7.20000000E-01  7.20000000E-01  8.50000000E-01
  7.20000000E-01  8.50000000E-01  8.50000000E-01  8.50000000E-01  7.20000000E-01
  7.20000000E-01  7.20000000E-01  7.20000000E-01  7.20000000E-01  8.50000000E-01
  7.20000000E-01  7.20000000E-01  7.20000000E-01  7.20000000E-01  7.20000000E-01
  8.50000000E-01  8.50000000E-01  7.20000000E-01  8.50000000E-01  7.20000000E-01
  7.20000000E-01  8.50000000E-01  8.50000000E-01  8.50000000E-01  7.20000000E-01
  7.20000000E-01  8.50000000E-01  7.20000000E-01  7.20000000E-01  8.50000000E-01
  7.20000000E-01  7.20000000E-01  8.50000000E-01  7.20000000E-01  7.20000000E-01
  8.50000000E-01  7.20000000E-01  8.50000000E-01  8.50000000E-01  8.50000000E-01
  7.20000000E-01  7.20000000E-01  7.20000000E-01  7.20000000E-01  7.20000000E-01
  8.50000000E-01  7.20000000E-01  7.20000000E-01  7.20000000E-01  7.20000000E-01
  7.20000000E-01  8.50000000E-01  8.50000000E-01  7.20000000E-01  8.50000000E-01
  7.20000000E-01  7.20000000E-01  8.50000000E-01  8.50000000E-01  8.50000000E-01
  7.20000000E-01  7.20000000E-01  8.50000000E-01  7.20000000E-01  7.20000000E-01
  8.50000000E-01  7.20000000E-01  7.20000000E-01  8.50000000E-01  7.20000000E-01
  7.20000000E-01  8.50000000E-01  7.20000000E-01  8.50000000E-01  8.50000000E-01
  8.50000000E-01  7.20000000E-01  7.20000000E-01  7.20000000E-01  7.20000000E-01
  7.20000000E-01  8.50000000E-01  7.20000000E-01  7.20000000E-01  7.20000000E-01
  7.20000000E-01  7.20000000E-01  8.50000000E-01  8.50000000E-01  7.20000000E-01
  8.50000000E-01  7.20000000E-01  7.20000000E-01  8.50000000E-01  8.50000000E-01
  8.50000000E-01  7.20000000E-01  7.20000000E-01  8.50000000E-01  7.20000000E-01
  7.20000000E-01  8.50000000E-01  7.20000000E-01  7.20000000E-01  8.50000000E-01
  7.20000000E-01  7.20000000E-01  8.50000000E-01  7.20000000E-01  8.50000000E-01
  8.50000000E-01  8.50000000E-01  7.20000000E-01  7.20000000E-01  7.20000000E-01
  7.20000000E-01  7.20000000E-01  8.50000000E-01  7.20000000E-01  7.20000000E-01
  7.20000000E-01  7.20000000E-01  7.20000000E-01  8.50000000E-01  8.50000000E-01
  7.20000000E-01  8.50000000E-01  7.20000000E-01  7.20000000E-01  8.50000000E-01
  8.50000000E-01  8.50000000E-01  7.20000000E-01  7.20000000E-01  8.50000000E-01
  7.20000000E-01  7.20000000E-01  8.50000000E-01  7.20000000E-01  7.20000000E-01
  8.50000000E-01  7.20000000E-01  7.20000000E-01  8.50000000E-01  7.20000000E-01
  8.50000000E-01  8.50000000E-01  8.50000000E-01  7.20000000E-01  7.20000000E-01
  7.20000000E-01  7.20000000E-01  7.20000000E-01  8.50000000E-01  7.20000000E-01
  7.20000000E-01  7.20000000E-01  7.20000000E-01  7.20000000E-01  8.50000000E-01
  8.50000000E-01  7.20000000E-01  8.50000000E-01  7.20000000E-01  7.20000000E-01
  8.50000000E-01  8.50000000E-01  8.50000000E-01  7.20000000E-01  7.20000000E-01
  8.50000000E-01  7.20000000E-01  7.20000000E-01  8.50000000E-01  7.20000000E-01
  7.20000000E-01  8.50000000E-01  7.20000000E-01  7.20000000E-01  8.50000000E-01
  7.20000000E-01  8.50000000E-01  8.50000000E-01  8.50000000E-01  7.20000000E-01
  7.20000000E-01  7.20000000E-01  7.20000000E-01  7.20000000E-01  8.50000000E-01
  7.20000000E-01  7.20000000E-01  7.20000000E-01  7.20000000E-01  7.20000000E-01
  8.50000000E-01  8.50000000E-01  7.20000000E-01  8.50000000E-01  7.20000000E-01
  7.20000000E-01  8.50000000E-01  8.50000000E-01  8.50000000E-01  7.20000000E-01
  7.20000000E-01  8.50000000E-01  7.20000000E-01  7.20000000E-01  8.50000000E-01
  7.20000000E-01  7.20000000E-01  8.50000000E-01  7.20000000E-01  7.20000000E-01
  8.50000000E-01  7.20000000E-01  8.50000000E-01  8.50000000E-01  8.50000000E-01
  7.20000000E-01  7.20000000E-01  7.20000000E-01  7.20000000E-01  7.20000000E-01
  8.50000000E-01  7.20000000E-01  7.20000000E-01  7.20000000E-01  7.20000000E-01
  7.20000000E-01  8.50000000E-01  8.50000000E-01  7.20000000E-01  8.50000000E-01
  7.20000000E-01  7.20000000E-01  8.50000000E-01  8.50000000E-01  8.50000000E-01
  7.20000000E-01  7.20000000E-01  8.50000000E-01  7.20000000E-01  7.20000000E-01
  8.50000000E-01  7.20000000E-01  7.20000000E-01  8.50000000E-01  7.20000000E-01
  7.20000000E-01  8.50000000E-01  7.20000000E-01  8.50000000E-01  8.50000000E-01
  8.50000000E-01  7.20000000E-01  7.20000000E-01  7.20000000E-01  7.20000000E-01
  7.20000000E-01  8.50000000E-01  7.20000000E-01  7.20000000E-01  7.20000000E-01
  7.20000000E-01  7.20000000E-01  8.50000000E-01  8.50000000E-01  7.20000000E-01
  8.50000000E-01  7.20000000E-01  7.20000000E-01  8.50000000E-01  8.50000000E-01
  8.50000000E-01  7.20000000E-01  7.20000000E-01  8.50000000E-01  7.20000000E-01
  7.20000000E-01  8.50000000E-01  7.20000000E-01  7.20000000E-01  8.50000000E-01
  7.20000000E-01  7.20000000E-01  8.50000000E-01  7.20000000E-01  8.50000000E-01
  8.50000000E-01  8.50000000E-01  7.20000000E-01  7.20000000E-01  7.20000000E-01
  7.20000000E-01  7.20000000E-01  8.50000000E-01  7.20000000E-01  7.20000000E-01
  7.20000000E-01  7.20000000E-01  7.20000000E-01  8.50000000E-01  8.50000000E-01
  7.20000000E-01  8.50000000E-01  7.20000000E-01  7.20000000E-01  8.50000000E-01
  8.50000000E-01  8.50000000E-01  7.20000000E-01  7.20000000E-01  8.50000000E-01
  7.20000000E-01  7.20000000E-01  8.50000000E-01  7.20000000E-01  7.20000000E-01
  8.50000000E-01  7.20000000E-01  7.20000000E-01  8.50000000E-01  7.20000000E-01
  8.50000000E-01  8.50000000E-01  8.50000000E-01  7.20000000E-01  7.20000000E-01
  7.20000000E-01  7.20000000E-01  7.20000000E-01  8.50000000E-01  7.20000000E-01
  7.20000000E-01  7.20000000E-01  7.20000000E-01  7.20000000E-01  8.50000000E-01
  8.50000000E-01  7.20000000E-01  8.50000000E-01  7.20000000E-01  7.20000000E-01
  8.50000000E-01  8.50000000E-01  8.50000000E-01  7.20000000E-01  7.20000000E-01
  8.50000000E-01  7.20000000E-01  7.20000000E-01  8.50000000E-01  7.20000000E-01
  7.20000000E-01  8.50000000E-01  7.20000000E-01  7.20000000E-01  8.50000000E-01
  7.20000000E-01  8.50000000E-01  8.50000000E-01  8.50000000E-01  7.20000000E-01
  7.20000000E-01  7.20000000E-01  7.20000000E-01  7.20000000E-01  8.50000000E-01
  7.20000000E-01  7.20000000E-01  7.20000000E-01  7.20000000E-01  7.20000000E-01
  8.50000000E-01  8.50000000E-01  7.20000000E-01  8.50000000E-01  7.20000000E-01
  7.20000000E-01  8.50000000E-01  8.50000000E-01  8.50000000E-01  7.20000000E-01
  7.20000000E-01  8.50000000E-01  7.20000000E-01  7.20000000E-01  8.50000000E-01
  7.20000000E-01  7.20000000E-01  8.50000000E-01  7.20000000E-01  7.20000000E-01
  8.50000000E-01  7.20000000E-01  8.50000000E-01  8.50000000E-01  8.50000000E-01
  7.20000000E-01  7.20000000E-01  7.20000000E-01  7.20000000E-01  7.20000000E-01
  8.50000000E-01  7.20000000E-01  7.20000000E-01  7.20000000E-01  7.20000000E-01
  7.20000000E-01  8.50000000E-01  8.50000000E-01  7.20000000E-01  8.50000000E-01
  7.20000000E-01  7.20000000E-01  8.50000000E-01  8.50000000E-01  8.50000000E-01
  7.20000000E-01  7.20000000E-01  8.50000000E-01  7.20000000E-01  7.20000000E-01
  8.50000000E-01  7.20000000E-01  7.20000000E-01  8.50000000E-01  7.20000000E-01
  7.20000000E-01  8.50000000E-01  7.20000000E-01  8.50000000E-01  8.50000000E-01
  8.50000000E-01  7.20000000E-01  7.20000000E-01  7.20000000E-01  7.20000000E-01
  7.20000000E-01  8.50000000E-01  7.20000000E-01  7.20000000E-01  7.20000000E-01
  7.20000000E-01  7.20000000E-01  8.50000000E-01  8.50000000E-01  7.20000000E-01
  8.50000000E-01  7.20000000E-01  7.20000000E-01  8.50000000E-01  8.50000000E-01
  8.50000000E-01  7.20000000E-01  7.20000000E-01  8.50000000E-01  7.20000000E-01
  7.20000000E-01  8.50000000E-01  7.20000000E-01  7.20000000E-01  8.50000000E-01
  7.20000000E-01  7.20000000E-01  8.50000000E-01  7.20000000E-01  8.50000000E-01
  8.50000000E-01  8.50000000E-01  7.20000000E-01  7.20000000E-01  7.20000000E-01
  7.20000000E-01  7.20000000E-01  8.50000000E-01  7.20000000E-01  7.20000000E-01
  7.20000000E-01  7.20000000E-01  7.20000000E-01  8.50000000E-01  8.50000000E-01
  7.20000000E-01  8.50000000E-01  7.20000000E-01  7.20000000E-01  8.50000000E-01
  8.50000000E-01  8.50000000E-01  7.20000000E-01  7.20000000E-01  8.50000000E-01
  7.20000000E-01  7.20000000E-01  8.50000000E-01  7.20000000E-01  7.20000000E-01
  8.50000000E-01  7.20000000E-01  7.20000000E-01  8.50000000E-01  7.20000000E-01
  8.50000000E-01  8.50000000E-01  8.50000000E-01  7.20000000E-01  7.20000000E-01
  7.20000000E-01  7.20000000E-01  7.20000000E-01  8.50000000E-01  7.20000000E-01
  7.20000000E-01  7.20000000E-01  7.20000000E-01  7.20000000E-01  8.50000000E-01
  8.50000000E-01  7.20000000E-01  8.50000000E-01  7.20000000E-01  7.20000000E-01
  8.50000000E-01  8.50000000E-01  8.50000000E-01  7.20000000E-01  7.20000000E-01
  8.50000000E-01  7.20000000E-01  7.20000000E-01  8.50000000E-01  7.20000000E-01
  7.20000000E-01  8.50000000E-01  7.20000000E-01  7.20000000E-01  8.50000000E-01
  7.20000000E-01  8.50000000E-01  8.50000000E-01  8.50000000E-01  7.20000000E-01
  7.20000000E-01  7.20000000E-01  7.20000000E-01  7.20000000E-01  8.50000000E-01
  7.20000000E-01  7.20000000E-01  7.20000000E-01  7.20000000E-01  7.20000000E-01
  8.50000000E-01  8.50000000E-01  7.20000000E-01  8.50000000E-01  7.20000000E-01
  7.20000000E-01  8.50000000E-01  8.50000000E-01  8.50000000E-01  7.20000000E-01
  7.20000000E-01  8.50000000E-01  7.20000000E-01  7.20000000E-01  8.50000000E-01
  7.20000000E-01  7.20000000E-01  8.50000000E-01  7.20000000E-01  7.20000000E-01
  8.50000000E-01  7.20000000E-01  8.50000000E-01  8.50000000E-01  8.50000000E-01
  7.20000000E-01  7.20000000E-01  7.20000000E-01  7.20000000E-01  7.20000000E-01
  8.50000000E-01  7.20000000E-01  7.20000000E-01  7.20000000E-01  7.20000000E-01
  7.20000000E-01  8.50000000E-01  8.50000000E-01  7.20000000E-01  8.50000000E-01
  7.20000000E-01  7.20000000E-01  8.50000000E-01  8.50000000E-01  8.50000000E-01
  7.20000000E-01  7.20000000E-01  8.50000000E-01  7.20000000E-01  7.20000000E-01
  8.50000000E-01  7.20000000E-01  7.20000000E-01  8.50000000E-01  7.20000000E-01
  7.20000000E-01  8.50000000E-01  7.20000000E-01  8.50000000E-01  8.50000000E-01
  8.50000000E-01  7.20000000E-01  7.20000000E-01  7.20000000E-01  7.20000000E-01
  7.20000000E-01  8.50000000E-01  7.20000000E-01  7.20000000E-01  7.20000000E-01
  7.20000000E-01  7.20000000E-01  8.50000000E-01  8.50000000E-01  7.20000000E-01
  8.50000000E-01  7.20000000E-01  7.20000000E-01  8.50000000E-01  8.50000000E-01
  8.50000000E-01  7.20000000E-01  7.20000000E-01  8.50000000E-01  7.20000000E-01
  7.20000000E-01  8.50000000E-01  7.20000000E-01  7.20000000E-01  8.50000000E-01
  7.20000000E-01  7.20000000E-01  8.50000000E-01  7.20000000E-01  8.50000000E-01
  8.50000000E-01  8.50000000E-01  7.20000000E-01  7.20000000E-01  7.20000000E-01
  7.20000000E-01  7.20000000E-01  8.50000000E-01  7.20000000E-01  7.20000000E-01
  7.20000000E-01  7.20000000E-01  7.20000000E-01  8.50000000E-01  8.50000000E-01
  7.20000000E-01  8.50000000E-01  7.20000000E-01  7.20000000E-01  8.50000000E-01
  8.50000000E-01  8.50000000E-01  7.20000000E-01  7.20000000E-01  8.50000000E-01
  7.20000000E-01  7.20000000E-01  8.50000000E-01  7.20000000E-01  7.20000000E-01
  8.50000000E-01  7.20000000E-01  7.20000000E-01  8.50000000E-01  7.20000000E-01
  8.50000000E-01  8.50000000E-01  8.50000000E-01  7.20000000E-01  7.20000000E-01
  7.20000000E-01  7.20000000E-01  7.20000000E-01  8.50000000E-01  7.20000000E-01
  7.20000000E-01  7.20000000E-01  7.20000000E-01  7.20000000E-01  8.50000000E-01
  8.50000000E-01  7.20000000E-01  8.50000000E-01  7.20000000E-01  7.20000000E-01
  8.50000000E-01  8.50000000E-01  8.50000000E-01  7.20000000E-01  7.20000000E-01
  8.50000000E-01  7.20000000E-01  7.20000000E-01  8.50000000E-01  7.20000000E-01
  7.20000000E-01  8.50000000E-01  7.20000000E-01  7.20000000E-01  8.50000000E-01
  7.20000000E-01  8.50000000E-01  8.50000000E-01  8.50000000E-01  7.20000000E-01
  7.20000000E-01  7.20000000E-01  7.20000000E-01  7.20000000E-01  8.50000000E-01
  7.20000000E-01  7.20000000E-01  7.20000000E-01  7.20000000E-01  7.20000000E-01
  8.50000000E-01  8.50000000E-01  7.20000000E-01  8.50000000E-01  7.20000000E-01
  7.20000000E-01  8.50000000E-01  8.50000000E-01  8.50000000E-01  7.20000000E-01
  7.20000000E-01  8.50000000E-01  7.20000000E-01  7.20000000E-01  8.50000000E-01
  7.20000000E-01  7.20000000E-01  8.50000000E-01  7.20000000E-01  7.20000000E-01
  8.50000000E-01  7.20000000E-01  8.50000000E-01  8.50000000E-01  8.50000000E-01
  7.20000000E-01  7.20000000E-01  7.20000000E-01  7.20000000E-01  7.20000000E-01
  8.50000000E-01  7.20000000E-01  7.20000000E-01  7.20000000E-01  7.20000000E-01
  7.20000000E-01  8.50000000E-01  8.50000000E-01  7.20000000E-01  8.50000000E-01
  7.20000000E-01  7.20000000E-01  8.50000000E-01  8.50000000E-01  8.50000000E-01
  7.20000000E-01  7.20000000E-01  8.50000000E-01  7.20000000E-01  7.20000000E-01
  8.50000000E-01  7.20000000E-01  7.20000000E-01  8.50000000E-01  7.20000000E-01
  7.20000000E-01  8.50000000E-01  7.20000000E-01  8.50000000E-01  8.50000000E-01
  8.50000000E-01  7.20000000E-01  7.20000000E-01  7.20000000E-01  7.20000000E-01
  7.20000000E-01  8.50000000E-01  7.20000000E-01  7.20000000E-01  7.20000000E-01
  7.20000000E-01  7.20000000E-01  8.50000000E-01  8.50000000E-01  7.20000000E-01
  8.50000000E-01  7.20000000E-01  7.20000000E-01  8.50000000E-01  8.50000000E-01
  8.50000000E-01  7.20000000E-01  7.20000000E-01  8.50000000E-01  7.20000000E-01
  7.20000000E-01  8.50000000E-01  7.20000000E-01  7.20000000E-01  8.50000000E-01
  7.20000000E-01  7.20000000E-01  8.50000000E-01  7.20000000E-01  8.50000000E-01
  8.50000000E-01  8.50000000E-01  7.20000000E-01  7.20000000E-01  7.20000000E-01
  7.20000000E-01  7.20000000E-01  8.50000000E-01  7.20000000E-01  7.20000000E-01
  7.20000000E-01  7.20000000E-01  7.20000000E-01  8.50000000E-01  8.50000000E-01
  7.20000000E-01  8.50000000E-01  7.20000000E-01  7.20000000E-01  8.50000000E-01
  8.50000000E-01  8.50000000E-01  7.20000000E-01  7.20000000E-01  8.50000000E-01
  7.20000000E-01  7.20000000E-01  8.50000000E-01  7.20000000E-01  7.20000000E-01
  8.50000000E-01  7.20000000E-01  7.20000000E-01  8.50000000E-01  7.20000000E-01
  8.50000000E-01  8.50000000E-01  8.50000000E-01  7.20000000E-01  7.20000000E-01
  7.20000000E-01  7.20000000E-01  7.20000000E-01  8.50000000E-01  7.20000000E-01
  7.20000000E-01  7.20000000E-01  7.20000000E-01  7.20000000E-01  8.50000000E-01
  8.50000000E-01  7.20000000E-01  8.50000000E-01  7.20000000E-01  7.20000000E-01
  8.50000000E-01  8.50000000E-01  8.50000000E-01  7.20000000E-01  7.20000000E-01
  8.50000000E-01  7.20000000E-01  7.20000000E-01  8.50000000E-01  7.20000000E-01
  7.20000000E-01  8.50000000E-01  7.20000000E-01  7.20000000E-01  8.50000000E-01
  7.20000000E-01  8.50000000E-01  8.50000000E-01  8.50000000E-01  7.20000000E-01
  7.20000000E-01  7.20000000E-01  7.20000000E-01  7.20000000E-01  8.50000000E-01
  7.20000000E-01  7.20000000E-01  7.20000000E-01  7.20000000E-01  7.20000000E-01
  8.50000000E-01  8.50000000E-01  7.20000000E-01  8.50000000E-01  7.20000000E-01
  7.20000000E-01  8.50000000E-01  8.50000000E-01  8.50000000E-01  7.20000000E-01
  7.20000000E-01  8.50000000E-01  7.20000000E-01  7.20000000E-01  8.50000000E-01
  7.20000000E-01  7.20000000E-01  8.50000000E-01  7.20000000E-01  7.20000000E-01
  8.50000000E-01  7.20000000E-01  8.50000000E-01  8.50000000E-01  8.50000000E-01
  7.20000000E-01  7.20000000E-01  7.20000000E-01  7.20000000E-01  7.20000000E-01
  8.50000000E-01  7.20000000E-01  7.20000000E-01  7.20000000E-01  7.20000000E-01
  7.20000000E-01  8.50000000E-01  8.50000000E-01  7.20000000E-01  8.50000000E-01
  7.20000000E-01  7.20000000E-01  8.50000000E-01  8.50000000E-01  8.50000000E-01
  7.20000000E-01  7.20000000E-01  8.50000000E-01  7.20000000E-01  7.20000000E-01
  8.50000000E-01  7.20000000E-01  7.20000000E-01  8.50000000E-01  7.20000000E-01
  7.20000000E-01  8.50000000E-01  7.20000000E-01  8.50000000E-01  8.50000000E-01
  8.50000000E-01  7.20000000E-01  7.20000000E-01  7.20000000E-01  7.20000000E-01
  7.20000000E-01  8.50000000E-01  7.20000000E-01  7.20000000E-01  7.20000000E-01
  7.20000000E-01  7.20000000E-01  8.50000000E-01  8.50000000E-01  7.20000000E-01
  8.50000000E-01  7.20000000E-01  7.20000000E-01  8.50000000E-01  8.50000000E-01
  8.50000000E-01  7.20000000E-01  7.20000000E-01  8.50000000E-01  7.20000000E-01
  7.20000000E-01  8.50000000E-01  7.20000000E-01  7.20000000E-01  8.50000000E-01
  7.20000000E-01  7.20000000E-01  8.50000000E-01  7.20000000E-01  8.50000000E-01
  8.50000000E-01  8.50000000E-01  7.20000000E-01  7.20000000E-01  7.20000000E-01
  7.20000000E-01  7.20000000E-01  8.50000000E-01  7.20000000E-01  7.20000000E-01
  7.20000000E-01  7.20000000E-01  7.20000000E-01  8.50000000E-01  8.50000000E-01
  7.20000000E-01  8.50000000E-01  7.20000000E-01  7.20000000E-01  8.50000000E-01
  8.50000000E-01  8.50000000E-01  7.20000000E-01  7.20000000E-01  8.50000000E-01
  7.20000000E-01  7.20000000E-01  8.50000000E-01  7.20000000E-01  7.20000000E-01
  8.50000000E-01  7.20000000E-01  7.20000000E-01  8.50000000E-01  7.20000000E-01
  8.50000000E-01  8.50000000E-01  8.50000000E-01  7.20000000E-01  7.20000000E-01
  7.20000000E-01  7.20000000E-01  7.20000000E-01  8.50000000E-01  7.20000000E-01
  7.20000000E-01  7.20000000E-01  7.20000000E-01  7.20000000E-01  8.50000000E-01
  8.50000000E-01  7.20000000E-01  8.50000000E-01  7.20000000E-01  7.20000000E-01
  8.50000000E-01  8.50000000E-01  8.50000000E-01  7.20000000E-01  7.20000000E-01
  8.50000000E-01  7.20000000E-01  7.20000000E-01  8.50000000E-01  7.20000000E-01
  7.20000000E-01  8.50000000E-01  7.20000000E-01  7.20000000E-01  8.50000000E-01
  7.20000000E-01  8.50000000E-01  8.50000000E-01  8.50000000E-01  7.20000000E-01
  7.20000000E-01  7.20000000E-01  7.20000000E-01  7.20000000E-01  8.50000000E-01
  7.20000000E-01  7.20000000E-01  7.20000000E-01  7.20000000E-01  7.20000000E-01
  8.50000000E-01  8.50000000E-01  7.20000000E-01  8.50000000E-01  7.20000000E-01
  7.20000000E-01  8.50000000E-01  8.50000000E-01  8.50000000E-01  7.20000000E-01
  7.20000000E-01  8.50000000E-01  7.20000000E-01  7.20000000E-01  8.50000000E-01
  7.20000000E-01  7.20000000E-01  8.50000000E-01  7.20000000E-01  7.20000000E-01
  8.50000000E-01  7.20000000E-01  8.50000000E-01  8.50000000E-01  8.50000000E-01
  7.20000000E-01  7.20000000E-01  7.20000000E-01  7.20000000E-01  7.20000000E-01
  8.50000000E-01  7.20000000E-01  7.20000000E-01  7.20000000E-01  7.20000000E-01
  7.20000000E-01  8.50000000E-01  8.50000000E-01  7.20000000E-01  8.50000000E-01
  7.20000000E-01  7.20000000E-01  8.50000000E-01  8.50000000E-01  8.50000000E-01
  7.20000000E-01  7.20000000E-01  8.50000000E-01  7.20000000E-01  7.20000000E-01
  8.50000000E-01  7.20000000E-01  7.20000000E-01  8.50000000E-01  7.20000000E-01
  7.20000000E-01  8.50000000E-01  7.20000000E-01  8.50000000E-01  8.50000000E-01
  8.50000000E-01  7.20000000E-01  7.20000000E-01  7.20000000E-01  7.20000000E-01
  7.20000000E-01  8.50000000E-01  7.20000000E-01  7.20000000E-01  7.20000000E-01
  7.20000000E-01  7.20000000E-01  8.50000000E-01  8.50000000E-01  7.20000000E-01
  8.50000000E-01  7.20000000E-01  7.20000000E-01  8.50000000E-01  8.50000000E-01
  8.50000000E-01  7.20000000E-01  7.20000000E-01  8.50000000E-01  7.20000000E-01
  7.20000000E-01  8.50000000E-01  7.20000000E-01  7.20000000E-01  8.50000000E-01
  7.20000000E-01  7.20000000E-01  8.50000000E-01  7.20000000E-01  8.50000000E-01
  8.50000000E-01  8.50000000E-01  7.20000000E-01  7.20000000E-01  7.20000000E-01
  7.20000000E-01  7.20000000E-01  8.50000000E-01  7.20000000E-01  7.20000000E-01
  7.20000000E-01  7.20000000E-01  7.20000000E-01  8.50000000E-01  8.50000000E-01
  7.20000000E-01  8.50000000E-01  7.20000000E-01  7.20000000E-01  8.50000000E-01
  8.50000000E-01  8.50000000E-01  7.20000000E-01  7.20000000E-01  8.50000000E-01
  7.20000000E-01  7.20000000E-01  8.50000000E-01  7.20000000E-01  7.20000000E-01
  8.50000000E-01  7.20000000E-01  7.20000000E-01  8.50000000E-01  7.20000000E-01
  8.50000000E-01  8.50000000E-01  8.50000000E-01  7.20000000E-01  7.20000000E-01
  7.20000000E-01  7.20000000E-01  7.20000000E-01  8.50000000E-01  7.20000000E-01
  7.20000000E-01  7.20000000E-01  7.20000000E-01  7.20000000E-01  8.50000000E-01
  8.50000000E-01  7.20000000E-01  8.50000000E-01  7.20000000E-01  7.20000000E-01
  8.50000000E-01  8.50000000E-01  8.50000000E-01  7.20000000E-01  7.20000000E-01
  8.50000000E-01  7.20000000E-01  7.20000000E-01  8.50000000E-01  7.20000000E-01
  7.20000000E-01  8.50000000E-01  7.20000000E-01  7.20000000E-01  8.50000000E-01
  7.20000000E-01  8.50000000E-01  8.50000000E-01  8.50000000E-01  7.20000000E-01
  7.20000000E-01  7.20000000E-01  7.20000000E-01  7.20000000E-01  8.50000000E-01
  7.20000000E-01  7.20000000E-01  7.20000000E-01  7.20000000E-01  7.20000000E-01
  8.50000000E-01  8.50000000E-01  7.20000000E-01  8.50000000E-01  7.20000000E-01
  7.20000000E-01  8.50000000E-01  8.50000000E-01  8.50000000E-01  7.20000000E-01
  7.20000000E-01  8.50000000E-01  7.20000000E-01  7.20000000E-01  8.50000000E-01
  7.20000000E-01  7.20000000E-01  8.50000000E-01  7.20000000E-01  7.20000000E-01
  8.50000000E-01  7.20000000E-01  8.50000000E-01  8.50000000E-01  8.50000000E-01
  7.20000000E-01  7.20000000E-01  7.20000000E-01  7.20000000E-01  7.20000000E-01
  8.50000000E-01  7.20000000E-01  7.20000000E-01  7.20000000E-01  7.20000000E-01
  7.20000000E-01  8.50000000E-01  8.50000000E-01  7.20000000E-01  8.50000000E-01
  7.20000000E-01  7.20000000E-01  8.50000000E-01  8.50000000E-01  8.50000000E-01
  7.20000000E-01  7.20000000E-01  8.50000000E-01  7.20000000E-01  7.20000000E-01
  8.50000000E-01  7.20000000E-01  7.20000000E-01  8.50000000E-01  7.20000000E-01
  7.20000000E-01  8.50000000E-01  7.20000000E-01  8.50000000E-01  8.50000000E-01
  8.50000000E-01  7.20000000E-01  7.20000000E-01  7.20000000E-01  7.20000000E-01
  7.20000000E-01  8.50000000E-01  7.20000000E-01  7.20000000E-01  7.20000000E-01
  7.20000000E-01  7.20000000E-01  8.50000000E-01  8.50000000E-01  7.20000000E-01
  8.50000000E-01  7.20000000E-01  7.20000000E-01  8.50000000E-01  8.50000000E-01
  8.50000000E-01  7.20000000E-01  7.20000000E-01  8.50000000E-01  7.20000000E-01
  7.20000000E-01  8.50000000E-01  7.20000000E-01  7.20000000E-01  8.50000000E-01
  7.20000000E-01  7.20000000E-01  8.50000000E-01  7.20000000E-01  8.50000000E-01
  8.50000000E-01  8.50000000E-01  7.20000000E-01  7.20000000E-01  7.20000000E-01
  7.20000000E-01  7.20000000E-01  8.50000000E-01  7.20000000E-01  7.20000000E-01
  7.20000000E-01  7.20000000E-01  7.20000000E-01  8.50000000E-01  8.50000000E-01
  7.20000000E-01  8.50000000E-01  7.20000000E-01  7.20000000E-01  8.50000000E-01
  8.50000000E-01  8.50000000E-01  7.20000000E-01  7.20000000E-01  8.50000000E-01
  7.20000000E-01  7.20000000E-01  8.50000000E-01  7.20000000E-01  7.20000000E-01
  8.50000000E-01  7.20000000E-01  7.20000000E-01  8.50000000E-01  7.20000000E-01
  8.50000000E-01  8.50000000E-01  8.50000000E-01  7.20000000E-01  7.20000000E-01
  7.20000000E-01  7.20000000E-01  7.20000000E-01  8.50000000E-01  7.20000000E-01
  7.20000000E-01  7.20000000E-01  7.20000000E-01  7.20000000E-01  8.50000000E-01
  8.50000000E-01  7.20000000E-01  8.50000000E-01  7.20000000E-01  7.20000000E-01
  8.50000000E-01  8.50000000E-01  8.50000000E-01  7.20000000E-01  7.20000000E-01
  8.50000000E-01  7.20000000E-01  7.20000000E-01  8.50000000E-01  7.20000000E-01
  7.20000000E-01  8.50000000E-01  7.20000000E-01  7.20000000E-01  8.50000000E-01
  7.20000000E-01  8.50000000E-01  8.50000000E-01  8.50000000E-01  7.20000000E-01
  7.20000000E-01  7.20000000E-01  7.20000000E-01  7.20000000E-01  8.50000000E-01
  7.20000000E-01  7.20000000E-01  7.20000000E-01  7.20000000E-01  7.20000000E-01
  8.50000000E-01  8.50000000E-01  7.20000000E-01  8.50000000E-01  7.20000000E-01
  7.20000000E-01  8.50000000E-01  8.50000000E-01  8.50000000E-01  7.20000000E-01
  7.20000000E-01  8.50000000E-01  7.20000000E-01  7.20000000E-01  8.50000000E-01
  7.20000000E-01  7.20000000E-01  8.50000000E-01  7.20000000E-01  7.20000000E-01
  8.50000000E-01  7.20000000E-01  8.50000000E-01  8.50000000E-01  8.50000000E-01
  7.20000000E-01  7.20000000E-01  7.20000000E-01  7.20000000E-01  7.20000000E-01
  8.50000000E-01  7.20000000E-01  7.20000000E-01  7.20000000E-01  7.20000000E-01
  7.20000000E-01  8.50000000E-01  8.50000000E-01  7.20000000E-01  8.50000000E-01
  7.20000000E-01  7.20000000E-01  8.50000000E-01  8.50000000E-01  8.50000000E-01
  7.20000000E-01  7.20000000E-01  8.50000000E-01  7.20000000E-01  7.20000000E-01
  8.50000000E-01  7.20000000E-01  7.20000000E-01  8.50000000E-01  7.20000000E-01
  7.20000000E-01  8.50000000E-01  7.20000000E-01  8.50000000E-01  8.50000000E-01
  8.50000000E-01  7.20000000E-01  7.20000000E-01  7.20000000E-01  7.20000000E-01
  7.20000000E-01  8.50000000E-01  7.20000000E-01  7.20000000E-01  7.20000000E-01
  7.20000000E-01  7.20000000E-01  8.50000000E-01  8.50000000E-01  7.20000000E-01
  8.50000000E-01  7.20000000E-01  7.20000000E-01  8.50000000E-01  8.50000000E-01
  8.50000000E-01  7.20000000E-01  7.20000000E-01  8.50000000E-01  7.20000000E-01
  7.20000000E-01  8.50000000E-01  7.20000000E-01  7.20000000E-01  8.50000000E-01
  7.20000000E-01  7.20000000E-01  8.50000000E-01  7.20000000E-01  8.50000000E-01
  8.50000000E-01  8.50000000E-01  7.20000000E-01  7.20000000E-01  7.20000000E-01
  7.20000000E-01  7.20000000E-01  8.50000000E-01  7.20000000E-01  7.20000000E-01
  7.20000000E-01  7.20000000E-01  7.20000000E-01  8.50000000E-01  8.50000000E-01
  7.20000000E-01  8.50000000E-01  7.20000000E-01  7.20000000E-01  8.50000000E-01
  8.50000000E-01  8.50000000E-01  7.20000000E-01  7.20000000E-01  8.50000000E-01
  7.20000000E-01  7.20000000E-01  8.50000000E-01  7.20000000E-01  7.20000000E-01
  8.50000000E-01  7.20000000E-01  7.20000000E-01  8.50000000E-01  7.20000000E-01
  8.50000000E-01  8.50000000E-01  8.50000000E-01  7.20000000E-01  7.20000000E-01
  7.20000000E-01  7.20000000E-01  7.20000000E-01  8.50000000E-01  7.20000000E-01
  7.20000000E-01  7.20000000E-01  7.20000000E-01  7.20000000E-01  8.50000000E-01
  8.50000000E-01  7.20000000E-01  8.50000000E-01  7.20000000E-01  7.20000000E-01
  8.50000000E-01  8.50000000E-01  8.50000000E-01  7.20000000E-01  7.20000000E-01
  8.50000000E-01  7.20000000E-01  7.20000000E-01  8.50000000E-01  7.20000000E-01
  7.20000000E-01  8.50000000E-01  7.20000000E-01  7.20000000E-01  8.50000000E-01
  7.20000000E-01  8.50000000E-01  8.50000000E-01  8.50000000E-01  7.20000000E-01
  7.20000000E-01  7.20000000E-01  7.20000000E-01  7.20000000E-01  8.50000000E-01
  7.20000000E-01  7.20000000E-01  7.20000000E-01  7.20000000E-01  7.20000000E-01
  8.50000000E-01  8.50000000E-01  7.20000000E-01  8.50000000E-01  7.20000000E-01
  7.20000000E-01  8.50000000E-01  8.50000000E-01  8.50000000E-01  7.20000000E-01
  7.20000000E-01  8.50000000E-01  7.20000000E-01  7.20000000E-01  8.50000000E-01
  7.20000000E-01  7.20000000E-01  8.50000000E-01  7.20000000E-01  7.20000000E-01
  8.50000000E-01  7.20000000E-01  8.50000000E-01  8.50000000E-01  8.50000000E-01
  7.20000000E-01  7.20000000E-01  7.20000000E-01  7.20000000E-01  7.20000000E-01
  8.50000000E-01  7.20000000E-01  7.20000000E-01  7.20000000E-01  7.20000000E-01
  7.20000000E-01  8.50000000E-01  8.50000000E-01  7.20000000E-01  8.50000000E-01
  7.20000000E-01  7.20000000E-01  8.50000000E-01  8.50000000E-01  8.50000000E-01
  7.20000000E-01  7.20000000E-01  8.50000000E-01  7.20000000E-01  7.20000000E-01
  8.50000000E-01  7.20000000E-01  7.20000000E-01  8.50000000E-01  7.20000000E-01
  7.20000000E-01  8.50000000E-01  7.20000000E-01  8.50000000E-01  8.50000000E-01
  8.50000000E-01  7.20000000E-01  7.20000000E-01  7.20000000E-01  7.20000000E-01
  7.20000000E-01  8.50000000E-01  7.20000000E-01  7.20000000E-01  7.20000000E-01
  7.20000000E-01  7.20000000E-01  8.50000000E-01  8.50000000E-01  7.20000000E-01
  8.50000000E-01  7.20000000E-01  7.20000000E-01  8.50000000E-01  8.50000000E-01
  8.50000000E-01  7.20000000E-01  7.20000000E-01  8.50000000E-01  7.20000000E-01
  7.20000000E-01  8.50000000E-01  7.20000000E-01  7.20000000E-01  8.50000000E-01
  7.20000000E-01  7.20000000E-01  8.50000000E-01  7.20000000E-01  8.50000000E-01
  8.50000000E-01  8.50000000E-01  7.20000000E-01  7.20000000E-01  7.20000000E-01
  7.20000000E-01  7.20000000E-01  8.50000000E-01  7.20000000E-01  7.20000000E-01
  7.20000000E-01  7.20000000E-01  7.20000000E-01  8.50000000E-01  8.50000000E-01
  7.20000000E-01  8.50000000E-01  7.20000000E-01  7.20000000E-01  8.50000000E-01
  8.50000000E-01  8.50000000E-01  7.20000000E-01  7.20000000E-01  8.50000000E-01
  7.20000000E-01  7.20000000E-01  8.50000000E-01  7.20000000E-01  7.20000000E-01
  8.50000000E-01  7.20000000E-01  7.20000000E-01  8.50000000E-01  7.20000000E-01
  8.50000000E-01  8.50000000E-01  8.50000000E-01  7.20000000E-01  7.20000000E-01
  7.20000000E-01  7.20000000E-01  7.20000000E-01  8.50000000E-01  7.20000000E-01
  7.20000000E-01  7.20000000E-01  7.20000000E-01  7.20000000E-01  8.50000000E-01
  8.50000000E-01  7.20000000E-01  8.50000000E-01  7.20000000E-01  7.20000000E-01
  8.50000000E-01  8.50000000E-01  8.50000000E-01  7.20000000E-01  7.20000000E-01
  8.50000000E-01  7.20000000E-01  7.20000000E-01  8.50000000E-01  7.20000000E-01
  7.20000000E-01  8.50000000E-01  7.20000000E-01  7.20000000E-01  8.50000000E-01
  7.20000000E-01  8.50000000E-01  8.50000000E-01  8.50000000E-01  7.20000000E-01
  7.20000000E-01  7.20000000E-01  7.20000000E-01  7.20000000E-01  8.50000000E-01
  7.20000000E-01  7.20000000E-01  7.20000000E-01  7.20000000E-01  7.20000000E-01
  8.50000000E-01  8.50000000E-01  7.20000000E-01  8.50000000E-01  7.20000000E-01
  7.20000000E-01  8.50000000E-01  8.50000000E-01  8.50000000E-01  7.20000000E-01
  7.20000000E-01  8.50000000E-01  7.20000000E-01  7.20000000E-01  8.50000000E-01
  7.20000000E-01  7.20000000E-01  8.50000000E-01  7.20000000E-01  7.20000000E-01
  8.50000000E-01  7.20000000E-01  8.50000000E-01  8.50000000E-01  8.50000000E-01
  7.20000000E-01  7.20000000E-01  7.20000000E-01  7.20000000E-01  7.20000000E-01
  8.50000000E-01  7.20000000E-01  7.20000000E-01  7.20000000E-01  7.20000000E-01
  7.20000000E-01  8.50000000E-01  8.50000000E-01  7.20000000E-01  8.50000000E-01
  7.20000000E-01  7.20000000E-01  8.50000000E-01  8.50000000E-01  8.50000000E-01
  7.20000000E-01  7.20000000E-01  8.50000000E-01  7.20000000E-01  7.20000000E-01
  8.50000000E-01  7.20000000E-01  7.20000000E-01  8.50000000E-01  7.20000000E-01
  7.20000000E-01  8.50000000E-01  7.20000000E-01  8.50000000E-01  8.50000000E-01
  8.50000000E-01  7.20000000E-01  7.20000000E-01  7.20000000E-01  7.20000000E-01
  7.20000000E-01  8.50000000E-01  7.20000000E-01  7.20000000E-01  7.20000000E-01
  7.20000000E-01  7.20000000E-01  8.50000000E-01  8.50000000E-01  7.20000000E-01
  8.50000000E-01  7.20000000E-01  7.20000000E-01  8.50000000E-01  8.50000000E-01
  8.50000000E-01  7.20000000E-01  7.20000000E-01  8.50000000E-01  7.20000000E-01
  7.20000000E-01  8.50000000E-01  7.20000000E-01  7.20000000E-01  8.50000000E-01
  7.20000000E-01  7.20000000E-01  8.50000000E-01  7.20000000E-01  8.50000000E-01
  8.50000000E-01  8.50000000E-01  7.20000000E-01  7.20000000E-01  7.20000000E-01
  7.20000000E-01  7.20000000E-01  8.50000000E-01  7.20000000E-01  7.20000000E-01
  7.20000000E-01  7.20000000E-01  7.20000000E-01  8.50000000E-01  8.50000000E-01
  7.20000000E-01  8.50000000E-01  7.20000000E-01  7.20000000E-01  8.50000000E-01
  8.50000000E-01  8.50000000E-01  7.20000000E-01  7.20000000E-01  8.50000000E-01
  7.20000000E-01  7.20000000E-01  8.50000000E-01  7.20000000E-01  7.20000000E-01
  8.50000000E-01  7.20000000E-01  7.20000000E-01  8.50000000E-01  7.20000000E-01
  8.50000000E-01  8.50000000E-01  8.50000000E-01  7.20000000E-01  7.20000000E-01
  7.20000000E-01  7.20000000E-01  7.20000000E-01  8.50000000E-01  7.20000000E-01
  7.20000000E-01  7.20000000E-01  7.20000000E-01  7.20000000E-01  8.50000000E-01
  8.50000000E-01  7.20000000E-01  8.50000000E-01  7.20000000E-01  7.20000000E-01
  8.50000000E-01  8.50000000E-01  8.50000000E-01  7.20000000E-01  7.20000000E-01
  8.50000000E-01  7.20000000E-01  7.20000000E-01  8.50000000E-01  7.20000000E-01
  7.20000000E-01  8.50000000E-01  7.20000000E-01  7.20000000E-01  8.50000000E-01
  7.20000000E-01  8.50000000E-01  8.50000000E-01  8.50000000E-01  7.20000000E-01
  7.20000000E-01  7.20000000E-01  7.20000000E-01  7.20000000E-01  8.50000000E-01
  7.20000000E-01  7.20000000E-01  7.20000000E-01  7.20000000E-01  7.20000000E-01
  8.50000000E-01  8.50000000E-01  7.20000000E-01  8.50000000E-01  7.20000000E-01
  7.20000000E-01  8.50000000E-01  8.50000000E-01  8.50000000E-01  7.20000000E-01
  7.20000000E-01  8.50000000E-01  7.20000000E-01  7.20000000E-01  8.50000000E-01
  7.20000000E-01  7.20000000E-01  8.50000000E-01  7.20000000E-01  7.20000000E-01
  8.50000000E-01  7.20000000E-01  8.50000000E-01  8.50000000E-01  8.50000000E-01
  7.20000000E-01  7.20000000E-01  7.20000000E-01  7.20000000E-01  7.20000000E-01
  8.50000000E-01  7.20000000E-01  7.20000000E-01  7.20000000E-01  7.20000000E-01
  7.20000000E-01  8.50000000E-01  8.50000000E-01  7.20000000E-01  8.50000000E-01
  7.20000000E-01  7.20000000E-01  8.50000000E-01  8.50000000E-01  8.50000000E-01
  7.20000000E-01  7.20000000E-01  8.50000000E-01  7.20000000E-01  7.20000000E-01
  8.50000000E-01  7.20000000E-01  7.20000000E-01  8.50000000E-01  7.20000000E-01
  7.20000000E-01  8.50000000E-01  7.20000000E-01  8.50000000E-01  8.50000000E-01
  8.50000000E-01  7.20000000E-01  7.20000000E-01  7.20000000E-01  7.20000000E-01
  7.20000000E-01  8.50000000E-01  7.20000000E-01  7.20000000E-01  7.20000000E-01
  7.20000000E-01  7.20000000E-01  8.50000000E-01  8.50000000E-01  7.20000000E-01
  8.50000000E-01  7.20000000E-01  7.20000000E-01  8.50000000E-01  8.50000000E-01
  8.50000000E-01  7.20000000E-01  7.20000000E-01  8.50000000E-01  7.20000000E-01
  7.20000000E-01  8.50000000E-01  7.20000000E-01  7.20000000E-01  8.50000000E-01
  7.20000000E-01  7.20000000E-01  8.50000000E-01  7.20000000E-01  8.50000000E-01
  8.50000000E-01  8.50000000E-01  7.20000000E-01  7.20000000E-01  7.20000000E-01
  7.20000000E-01  7.20000000E-01  8.50000000E-01  7.20000000E-01  7.20000000E-01
  7.20000000E-01  7.20000000E-01  7.20000000E-01  8.50000000E-01  8.50000000E-01
  7.20000000E-01  8.50000000E-01  7.20000000E-01  7.20000000E-01  8.50000000E-01
  8.50000000E-01  8.50000000E-01  7.20000000E-01  7.20000000E-01  8.50000000E-01
  7.20000000E-01  7.20000000E-01  8.50000000E-01  7.20000000E-01  7.20000000E-01
  8.50000000E-01  7.20000000E-01  7.20000000E-01  8.50000000E-01  7.20000000E-01
  8.50000000E-01  8.50000000E-01  8.50000000E-01  7.20000000E-01  7.20000000E-01
  7.20000000E-01  7.20000000E-01  7.20000000E-01  8.50000000E-01  7.20000000E-01
  7.20000000E-01  7.20000000E-01  7.20000000E-01  7.20000000E-01  8.50000000E-01
  8.50000000E-01  7.20000000E-01  8.50000000E-01  7.20000000E-01  7.20000000E-01
  8.50000000E-01  8.50000000E-01  8.50000000E-01  7.20000000E-01  7.20000000E-01
  8.50000000E-01  7.20000000E-01  7.20000000E-01  8.50000000E-01  7.20000000E-01
  7.20000000E-01  8.50000000E-01  7.20000000E-01  7.20000000E-01  8.50000000E-01
  7.20000000E-01  8.50000000E-01  8.50000000E-01  8.50000000E-01  7.20000000E-01
  7.20000000E-01  7.20000000E-01  7.20000000E-01  7.20000000E-01  8.50000000E-01
  7.20000000E-01  7.20000000E-01  7.20000000E-01  7.20000000E-01  7.20000000E-01
  8.50000000E-01  8.50000000E-01  7.20000000E-01  8.50000000E-01  7.20000000E-01
  7.20000000E-01  8.50000000E-01  8.50000000E-01  8.50000000E-01  7.20000000E-01
  7.20000000E-01  8.50000000E-01  7.20000000E-01  7.20000000E-01  8.50000000E-01
  7.20000000E-01  7.20000000E-01  8.50000000E-01  7.20000000E-01  7.20000000E-01
  8.50000000E-01  7.20000000E-01  8.50000000E-01  8.50000000E-01  8.50000000E-01
  7.20000000E-01  7.20000000E-01  7.20000000E-01  7.20000000E-01  7.20000000E-01
  8.50000000E-01  7.20000000E-01  7.20000000E-01  7.20000000E-01  7.20000000E-01
  7.20000000E-01  8.50000000E-01  8.50000000E-01  7.20000000E-01  8.50000000E-01
  7.20000000E-01  7.20000000E-01  8.50000000E-01  8.50000000E-01  8.50000000E-01
  7.20000000E-01  7.20000000E-01  8.50000000E-01  7.20000000E-01  7.20000000E-01
  8.50000000E-01  7.20000000E-01  7.20000000E-01  8.50000000E-01  7.20000000E-01
  7.20000000E-01  8.50000000E-01  7.20000000E-01  8.50000000E-01  8.50000000E-01
  8.50000000E-01  7.20000000E-01  7.20000000E-01  7.20000000E-01  7.20000000E-01
  7.20000000E-01  8.50000000E-01  7.20000000E-01  7.20000000E-01  7.20000000E-01
  7.20000000E-01  7.20000000E-01  8.50000000E-01  8.50000000E-01  7.20000000E-01
  8.50000000E-01  7.20000000E-01  7.20000000E-01  8.50000000E-01  8.50000000E-01
  8.50000000E-01  7.20000000E-01  7.20000000E-01  8.50000000E-01  7.20000000E-01
  7.20000000E-01  8.50000000E-01  7.20000000E-01  7.20000000E-01  8.50000000E-01
  7.20000000E-01  7.20000000E-01  8.50000000E-01  7.20000000E-01  8.50000000E-01
  8.50000000E-01  8.50000000E-01  7.20000000E-01  7.20000000E-01  7.20000000E-01
  7.20000000E-01  7.20000000E-01  8.50000000E-01  7.20000000E-01  7.20000000E-01
  7.20000000E-01  7.20000000E-01  7.20000000E-01  8.50000000E-01  8.50000000E-01
  7.20000000E-01  8.50000000E-01  7.20000000E-01  7.20000000E-01  8.50000000E-01
  8.50000000E-01  8.50000000E-01  7.20000000E-01  7.20000000E-01  8.50000000E-01
  7.20000000E-01  7.20000000E-01  8.50000000E-01  7.20000000E-01  7.20000000E-01
  8.50000000E-01  7.20000000E-01  7.20000000E-01  8.50000000E-01  7.20000000E-01
  8.50000000E-01  8.50000000E-01  8.50000000E-01  7.20000000E-01  7.20000000E-01
  7.20000000E-01  7.20000000E-01  7.20000000E-01  8.50000000E-01  7.20000000E-01
  7.20000000E-01  7.20000000E-01  7.20000000E-01  7.20000000E-01  8.50000000E-01
  8.50000000E-01  7.20000000E-01  8.50000000E-01  7.20000000E-01  7.20000000E-01
  8.50000000E-01  8.50000000E-01  8.50000000E-01  7.20000000E-01  7.20000000E-01
  8.50000000E-01  7.20000000E-01  7.20000000E-01  8.50000000E-01  7.20000000E-01
  7.20000000E-01  8.50000000E-01  7.20000000E-01  7.20000000E-01  8.50000000E-01
  7.20000000E-01  8.50000000E-01  8.50000000E-01  8.50000000E-01  7.20000000E-01
  7.20000000E-01  7.20000000E-01  7.20000000E-01  7.20000000E-01  8.50000000E-01
  7.20000000E-01  7.20000000E-01  7.20000000E-01  7.20000000E-01  7.20000000E-01
  8.50000000E-01  8.50000000E-01  7.20000000E-01  8.50000000E-01  7.20000000E-01
  7.20000000E-01  8.50000000E-01  8.50000000E-01  8.50000000E-01  7.20000000E-01
  7.20000000E-01  8.50000000E-01  7.20000000E-01  7.20000000E-01  8.50000000E-01
  7.20000000E-01  7.20000000E-01  8.50000000E-01  7.20000000E-01  7.20000000E-01
  8.50000000E-01  7.20000000E-01  8.50000000E-01  8.50000000E-01  8.50000000E-01
  7.20000000E-01  7.20000000E-01  7.20000000E-01  7.20000000E-01  7.20000000E-01
  8.50000000E-01  7.20000000E-01  7.20000000E-01  7.20000000E-01  7.20000000E-01
  7.20000000E-01  8.50000000E-01  8.50000000E-01  7.20000000E-01  8.50000000E-01
  7.20000000E-01  7.20000000E-01  8.50000000E-01  8.50000000E-01  8.50000000E-01
  7.20000000E-01  7.20000000E-01  8.50000000E-01  7.20000000E-01  7.20000000E-01
  8.50000000E-01  7.20000000E-01  7.20000000E-01  8.50000000E-01  7.20000000E-01
  7.20000000E-01  8.50000000E-01  7.20000000E-01  8.50000000E-01  8.50000000E-01
  8.50000000E-01  7.20000000E-01  7.20000000E-01  7.20000000E-01  7.20000000E-01
  7.20000000E-01  8.50000000E-01  7.20000000E-01  7.20000000E-01  7.20000000E-01
  7.20000000E-01  7.20000000E-01  8.50000000E-01  8.50000000E-01  7.20000000E-01
  8.50000000E-01  7.20000000E-01  7.20000000E-01  8.50000000E-01  8.50000000E-01
  8.50000000E-01  7.20000000E-01  7.20000000E-01  8.50000000E-01  7.20000000E-01
  7.20000000E-01  8.50000000E-01  7.20000000E-01  7.20000000E-01  8.50000000E-01
  7.20000000E-01  7.20000000E-01  8.50000000E-01  7.20000000E-01  8.50000000E-01
  8.50000000E-01  8.50000000E-01  7.20000000E-01  7.20000000E-01  7.20000000E-01
  7.20000000E-01  7.20000000E-01  8.50000000E-01  7.20000000E-01  7.20000000E-01
  7.20000000E-01  7.20000000E-01  7.20000000E-01  8.50000000E-01  8.50000000E-01
  7.20000000E-01  8.50000000E-01  7.20000000E-01  7.20000000E-01  8.50000000E-01
  8.50000000E-01  8.50000000E-01  7.20000000E-01  7.20000000E-01  8.50000000E-01
  7.20000000E-01  7.20000000E-01  8.50000000E-01  7.20000000E-01  7.20000000E-01
  8.50000000E-01  7.20000000E-01  7.20000000E-01  8.50000000E-01  7.20000000E-01
  8.50000000E-01  8.50000000E-01  8.50000000E-01  7.20000000E-01  7.20000000E-01
  7.20000000E-01  7.20000000E-01  7.20000000E-01  8.50000000E-01  7.20000000E-01
  7.20000000E-01  7.20000000E-01  7.20000000E-01  7.20000000E-01  8.50000000E-01
  8.50000000E-01  7.20000000E-01  8.50000000E-01  7.20000000E-01  7.20000000E-01
  8.50000000E-01  8.50000000E-01  8.50000000E-01  7.20000000E-01  7.20000000E-01
  8.50000000E-01  7.20000000E-01  7.20000000E-01  8.50000000E-01  7.20000000E-01
  7.20000000E-01  8.50000000E-01  7.20000000E-01  7.20000000E-01  8.50000000E-01
  7.20000000E-01  8.50000000E-01  8.50000000E-01  8.50000000E-01  7.20000000E-01
  7.20000000E-01  7.20000000E-01  7.20000000E-01  7.20000000E-01  8.50000000E-01
  7.20000000E-01  7.20000000E-01  7.20000000E-01  7.20000000E-01  7.20000000E-01
  8.50000000E-01  8.50000000E-01  7.20000000E-01  8.50000000E-01  7.20000000E-01
  7.20000000E-01  8.50000000E-01  8.50000000E-01  8.50000000E-01  7.20000000E-01
  7.20000000E-01  8.50000000E-01  7.20000000E-01  7.20000000E-01  8.50000000E-01
  7.20000000E-01  7.20000000E-01  8.50000000E-01  7.20000000E-01  7.20000000E-01
  8.50000000E-01  7.20000000E-01  8.50000000E-01  8.50000000E-01  8.50000000E-01
  7.20000000E-01  7.20000000E-01  7.20000000E-01  7.20000000E-01  7.20000000E-01
  8.50000000E-01  7.20000000E-01  7.20000000E-01  7.20000000E-01  7.20000000E-01
  7.20000000E-01  8.50000000E-01  8.50000000E-01  7.20000000E-01  8.50000000E-01
  7.20000000E-01  7.20000000E-01  8.50000000E-01  8.50000000E-01  8.50000000E-01
  7.20000000E-01  7.20000000E-01  8.50000000E-01  7.20000000E-01  7.20000000E-01
  8.50000000E-01  7.20000000E-01  7.20000000E-01  8.50000000E-01  7.20000000E-01
  7.20000000E-01  8.50000000E-01  7.20000000E-01  8.50000000E-01  8.50000000E-01
  8.50000000E-01  7.20000000E-01  7.20000000E-01  7.20000000E-01  7.20000000E-01
  7.20000000E-01  8.50000000E-01  7.20000000E-01  7.20000000E-01  7.20000000E-01
  7.20000000E-01  7.20000000E-01  8.50000000E-01  8.50000000E-01  7.20000000E-01
  8.50000000E-01  7.20000000E-01  7.20000000E-01  8.50000000E-01  8.50000000E-01
  8.50000000E-01  7.20000000E-01  7.20000000E-01  8.50000000E-01  7.20000000E-01
  7.20000000E-01  8.50000000E-01  7.20000000E-01  7.20000000E-01  8.50000000E-01
  7.20000000E-01  7.20000000E-01  8.50000000E-01  7.20000000E-01  8.50000000E-01
  8.50000000E-01  8.50000000E-01  7.20000000E-01  7.20000000E-01  7.20000000E-01
  7.20000000E-01  7.20000000E-01  8.50000000E-01  7.20000000E-01  7.20000000E-01
  7.20000000E-01  7.20000000E-01  7.20000000E-01  8.50000000E-01  8.50000000E-01
  7.20000000E-01  8.50000000E-01  7.20000000E-01  7.20000000E-01  8.50000000E-01
  8.50000000E-01  8.50000000E-01  7.20000000E-01  7.20000000E-01  8.50000000E-01
  7.20000000E-01  7.20000000E-01  8.50000000E-01  7.20000000E-01  7.20000000E-01
  8.50000000E-01  7.20000000E-01  7.20000000E-01  8.50000000E-01  7.20000000E-01
  8.50000000E-01  8.50000000E-01  8.50000000E-01  7.20000000E-01  7.20000000E-01
  7.20000000E-01  7.20000000E-01  7.20000000E-01  8.50000000E-01  7.20000000E-01
  7.20000000E-01  7.20000000E-01  7.20000000E-01  7.20000000E-01  8.50000000E-01
  8.50000000E-01  7.20000000E-01  8.50000000E-01  7.20000000E-01  7.20000000E-01
  8.50000000E-01  8.50000000E-01  8.50000000E-01  7.20000000E-01  7.20000000E-01
  8.50000000E-01  7.20000000E-01  7.20000000E-01  8.50000000E-01  7.20000000E-01
  7.20000000E-01  8.50000000E-01  7.20000000E-01  7.20000000E-01  8.50000000E-01
  7.20000000E-01  8.50000000E-01  8.50000000E-01  8.50000000E-01  7.20000000E-01
  7.20000000E-01  7.20000000E-01  7.20000000E-01  7.20000000E-01  8.50000000E-01
  7.20000000E-01  7.20000000E-01  7.20000000E-01  7.20000000E-01  7.20000000E-01
  8.50000000E-01  8.50000000E-01  7.20000000E-01  8.50000000E-01  7.20000000E-01
  7.20000000E-01  8.50000000E-01  8.50000000E-01  8.50000000E-01  7.20000000E-01
  7.20000000E-01  8.50000000E-01  7.20000000E-01  7.20000000E-01  8.50000000E-01
  7.20000000E-01  7.20000000E-01  8.50000000E-01  7.20000000E-01  7.20000000E-01
  8.50000000E-01  7.20000000E-01  8.50000000E-01  8.50000000E-01  8.50000000E-01
  7.20000000E-01  7.20000000E-01  7.20000000E-01  7.20000000E-01  7.20000000E-01
  8.50000000E-01  7.20000000E-01  7.20000000E-01  7.20000000E-01  7.20000000E-01
  7.20000000E-01  8.50000000E-01  8.50000000E-01  7.20000000E-01  8.50000000E-01
  7.20000000E-01  7.20000000E-01  8.50000000E-01  8.50000000E-01  8.50000000E-01
  7.20000000E-01  7.20000000E-01  8.50000000E-01  7.20000000E-01  7.20000000E-01
  8.50000000E-01  7.20000000E-01  7.20000000E-01  8.50000000E-01  7.20000000E-01
  7.20000000E-01  8.50000000E-01  7.20000000E-01  8.50000000E-01  8.50000000E-01
  8.50000000E-01  7.20000000E-01  7.20000000E-01  7.20000000E-01  7.20000000E-01
  7.20000000E-01  8.50000000E-01  7.20000000E-01  7.20000000E-01  7.20000000E-01
  7.20000000E-01  7.20000000E-01  8.50000000E-01  8.50000000E-01  7.20000000E-01
  8.50000000E-01  7.20000000E-01  7.20000000E-01  8.50000000E-01  8.50000000E-01
  8.50000000E-01  7.20000000E-01  7.20000000E-01  8.50000000E-01  7.20000000E-01
  7.20000000E-01  8.50000000E-01  7.20000000E-01  7.20000000E-01  8.50000000E-01
  7.20000000E-01  7.20000000E-01  8.50000000E-01  7.20000000E-01  8.50000000E-01
  8.50000000E-01  8.50000000E-01  7.20000000E-01  7.20000000E-01  7.20000000E-01
  7.20000000E-01  7.20000000E-01  8.50000000E-01  7.20000000E-01  7.20000000E-01
  7.20000000E-01  7.20000000E-01  7.20000000E-01  8.50000000E-01  8.50000000E-01
  7.20000000E-01  8.50000000E-01  7.20000000E-01  7.20000000E-01  8.50000000E-01
  8.50000000E-01  8.50000000E-01  7.20000000E-01  7.20000000E-01  8.50000000E-01
  7.20000000E-01  7.20000000E-01  8.50000000E-01  7.20000000E-01  7.20000000E-01
  8.50000000E-01  7.20000000E-01  7.20000000E-01  8.50000000E-01  7.20000000E-01
  8.50000000E-01  8.50000000E-01  8.50000000E-01  7.20000000E-01  7.20000000E-01
  7.20000000E-01  7.20000000E-01  7.20000000E-01  8.50000000E-01  7.20000000E-01
  7.20000000E-01  7.20000000E-01  7.20000000E-01  7.20000000E-01  8.50000000E-01
  8.50000000E-01  7.20000000E-01  8.50000000E-01  7.20000000E-01  7.20000000E-01
  8.50000000E-01  8.50000000E-01  8.50000000E-01  7.20000000E-01  7.20000000E-01
  8.50000000E-01  7.20000000E-01  7.20000000E-01  8.50000000E-01  7.20000000E-01
  7.20000000E-01  8.50000000E-01  7.20000000E-01  7.20000000E-01  8.50000000E-01
  7.20000000E-01  8.50000000E-01  8.50000000E-01  8.50000000E-01  7.20000000E-01
  7.20000000E-01  7.20000000E-01  7.20000000E-01  7.20000000E-01  8.50000000E-01
  7.20000000E-01  7.20000000E-01  7.20000000E-01  7.20000000E-01  7.20000000E-01
  8.50000000E-01  8.50000000E-01  7.20000000E-01  8.50000000E-01  7.20000000E-01
  7.20000000E-01  8.50000000E-01  8.50000000E-01  8.50000000E-01  7.20000000E-01
  7.20000000E-01  8.50000000E-01  7.20000000E-01  7.20000000E-01  8.50000000E-01
  7.20000000E-01  7.20000000E-01  8.50000000E-01  7.20000000E-01  7.20000000E-01
  8.50000000E-01  7.20000000E-01  8.50000000E-01  8.50000000E-01  8.50000000E-01
  7.20000000E-01  7.20000000E-01  7.20000000E-01  7.20000000E-01  7.20000000E-01
  8.50000000E-01  7.20000000E-01  7.20000000E-01  7.20000000E-01  7.20000000E-01
  7.20000000E-01  8.50000000E-01  8.50000000E-01  7.20000000E-01  8.50000000E-01
  7.20000000E-01  7.20000000E-01  8.50000000E-01  8.50000000E-01  8.50000000E-01
  7.20000000E-01  7.20000000E-01  8.50000000E-01  7.20000000E-01  7.20000000E-01
  8.50000000E-01  7.20000000E-01  7.20000000E-01  8.50000000E-01  7.20000000E-01
  7.20000000E-01  8.50000000E-01  7.20000000E-01  8.50000000E-01  8.50000000E-01
  8.50000000E-01  7.20000000E-01  7.20000000E-01  7.20000000E-01  7.20000000E-01
  7.20000000E-01  8.50000000E-01  7.20000000E-01  7.20000000E-01  7.20000000E-01
  7.20000000E-01  7.20000000E-01  8.50000000E-01  8.50000000E-01  7.20000000E-01
  8.50000000E-01  7.20000000E-01  7.20000000E-01  8.50000000E-01  8.50000000E-01
  8.50000000E-01  7.20000000E-01  7.20000000E-01  8.50000000E-01  7.20000000E-01
  7.20000000E-01  8.50000000E-01  7.20000000E-01  7.20000000E-01  8.50000000E-01
  7.20000000E-01  7.20000000E-01  8.50000000E-01  7.20000000E-01  8.50000000E-01
  8.50000000E-01  8.50000000E-01  7.20000000E-01  7.20000000E-01  7.20000000E-01
  7.20000000E-01  7.20000000E-01  8.50000000E-01  7.20000000E-01  7.20000000E-01
  7.20000000E-01  7.20000000E-01  7.20000000E-01  8.50000000E-01  8.50000000E-01
  7.20000000E-01  8.50000000E-01  7.20000000E-01  7.20000000E-01  8.50000000E-01
  8.50000000E-01  8.50000000E-01  7.20000000E-01  7.20000000E-01  8.50000000E-01
  7.20000000E-01  7.20000000E-01  8.50000000E-01  7.20000000E-01  7.20000000E-01
  8.50000000E-01  7.20000000E-01  7.20000000E-01  8.50000000E-01  7.20000000E-01
  8.50000000E-01  8.50000000E-01  8.50000000E-01  7.20000000E-01  7.20000000E-01
  7.20000000E-01  7.20000000E-01  7.20000000E-01  8.50000000E-01  7.20000000E-01
  7.20000000E-01  7.20000000E-01  7.20000000E-01  7.20000000E-01  8.50000000E-01
  8.50000000E-01  7.20000000E-01  8.50000000E-01  7.20000000E-01  7.20000000E-01
  8.50000000E-01  8.50000000E-01  8.50000000E-01  7.20000000E-01  7.20000000E-01
  8.50000000E-01  7.20000000E-01  7.20000000E-01  8.50000000E-01  7.20000000E-01
  7.20000000E-01  8.50000000E-01  7.20000000E-01  7.20000000E-01  8.50000000E-01
  7.20000000E-01  8.50000000E-01  8.50000000E-01  8.50000000E-01  7.20000000E-01
  7.20000000E-01  7.20000000E-01  7.20000000E-01  7.20000000E-01  8.50000000E-01
  7.20000000E-01  7.20000000E-01  7.20000000E-01  7.20000000E-01  7.20000000E-01
  8.50000000E-01  8.50000000E-01  7.20000000E-01  8.50000000E-01  7.20000000E-01
  7.20000000E-01  8.50000000E-01  8.50000000E-01  8.50000000E-01  7.20000000E-01
  7.20000000E-01  8.50000000E-01  7.20000000E-01  7.20000000E-01  8.50000000E-01
  7.20000000E-01  7.20000000E-01  8.50000000E-01  7.20000000E-01  7.20000000E-01
  8.50000000E-01  7.20000000E-01  8.50000000E-01  8.50000000E-01  8.50000000E-01
  7.20000000E-01  7.20000000E-01  7.20000000E-01  7.20000000E-01  7.20000000E-01
  8.50000000E-01  7.20000000E-01  7.20000000E-01  7.20000000E-01  7.20000000E-01
  7.20000000E-01  8.50000000E-01  8.50000000E-01  7.20000000E-01  8.50000000E-01
  7.20000000E-01  7.20000000E-01  8.50000000E-01  8.50000000E-01  8.50000000E-01
  7.20000000E-01  7.20000000E-01  8.50000000E-01  7.20000000E-01  7.20000000E-01
  8.50000000E-01  7.20000000E-01  7.20000000E-01  8.50000000E-01  7.20000000E-01
  7.20000000E-01  8.50000000E-01  7.20000000E-01  8.50000000E-01  8.50000000E-01
  8.50000000E-01  7.20000000E-01  7.20000000E-01  7.20000000E-01  7.20000000E-01
  7.20000000E-01  8.50000000E-01  7.20000000E-01  7.20000000E-01  7.20000000E-01
  7.20000000E-01  7.20000000E-01  8.50000000E-01  8.50000000E-01  7.20000000E-01
  8.50000000E-01  7.20000000E-01  7.20000000E-01  8.50000000E-01  8.50000000E-01
  8.50000000E-01  7.20000000E-01  7.20000000E-01  8.50000000E-01  7.20000000E-01
  7.20000000E-01  8.50000000E-01  7.20000000E-01  7.20000000E-01  8.50000000E-01
  7.20000000E-01  7.20000000E-01  8.50000000E-01  7.20000000E-01  8.50000000E-01
  8.50000000E-01  8.50000000E-01  7.20000000E-01  7.20000000E-01  7.20000000E-01
  7.20000000E-01  7.20000000E-01  8.50000000E-01  7.20000000E-01  7.20000000E-01
  7.20000000E-01  7.20000000E-01  7.20000000E-01  8.50000000E-01  8.50000000E-01
  7.20000000E-01  8.50000000E-01  7.20000000E-01  7.20000000E-01  8.50000000E-01
  8.50000000E-01  8.50000000E-01  7.20000000E-01  7.20000000E-01  8.50000000E-01
  7.20000000E-01  7.20000000E-01  8.50000000E-01  7.20000000E-01  7.20000000E-01
  8.50000000E-01  7.20000000E-01  7.20000000E-01  8.50000000E-01  7.20000000E-01
  8.50000000E-01  8.50000000E-01  8.50000000E-01  7.20000000E-01  7.20000000E-01
  7.20000000E-01  7.20000000E-01  7.20000000E-01  8.50000000E-01  7.20000000E-01
  7.20000000E-01  7.20000000E-01  7.20000000E-01  7.20000000E-01  8.50000000E-01
  8.50000000E-01  7.20000000E-01  8.50000000E-01  7.20000000E-01  7.20000000E-01
  8.50000000E-01  8.50000000E-01  8.50000000E-01  7.20000000E-01  7.20000000E-01
  8.50000000E-01  7.20000000E-01  7.20000000E-01  8.50000000E-01  7.20000000E-01
  7.20000000E-01  8.50000000E-01  7.20000000E-01  7.20000000E-01  8.50000000E-01
  7.20000000E-01  8.50000000E-01  8.50000000E-01  8.50000000E-01  7.20000000E-01
  7.20000000E-01  7.20000000E-01  7.20000000E-01  7.20000000E-01  8.50000000E-01
  7.20000000E-01  7.20000000E-01  7.20000000E-01  7.20000000E-01  7.20000000E-01
  8.50000000E-01  8.50000000E-01  7.20000000E-01  8.50000000E-01  7.20000000E-01
  7.20000000E-01  8.50000000E-01  8.50000000E-01  8.50000000E-01  7.20000000E-01
  7.20000000E-01  8.50000000E-01  7.20000000E-01  7.20000000E-01  8.50000000E-01
  7.20000000E-01  7.20000000E-01  8.50000000E-01  7.20000000E-01  7.20000000E-01
  8.50000000E-01  7.20000000E-01  8.50000000E-01  8.50000000E-01  8.50000000E-01
  7.20000000E-01  7.20000000E-01  7.20000000E-01  7.20000000E-01  7.20000000E-01
  8.50000000E-01  7.20000000E-01  7.20000000E-01  7.20000000E-01  7.20000000E-01
  7.20000000E-01  8.50000000E-01  8.50000000E-01  7.20000000E-01  8.50000000E-01
  7.20000000E-01  7.20000000E-01  8.50000000E-01  8.50000000E-01  8.50000000E-01
  7.20000000E-01  7.20000000E-01  8.50000000E-01  7.20000000E-01  7.20000000E-01
  8.50000000E-01  7.20000000E-01  7.20000000E-01  8.50000000E-01  7.20000000E-01
  7.20000000E-01  8.50000000E-01  7.20000000E-01  8.50000000E-01  8.50000000E-01
  8.50000000E-01  7.20000000E-01  7.20000000E-01  7.20000000E-01  7.20000000E-01
  7.20000000E-01  8.50000000E-01  7.20000000E-01  7.20000000E-01  7.20000000E-01
  7.20000000E-01  7.20000000E-01  8.50000000E-01  8.50000000E-01  7.20000000E-01
  8.50000000E-01  7.20000000E-01  7.20000000E-01  8.50000000E-01  8.50000000E-01
  8.50000000E-01  7.20000000E-01  7.20000000E-01  8.50000000E-01  7.20000000E-01
  7.20000000E-01  8.50000000E-01  7.20000000E-01  7.20000000E-01  8.50000000E-01
  7.20000000E-01  7.20000000E-01  8.50000000E-01  7.20000000E-01  8.50000000E-01
  8.50000000E-01  8.50000000E-01  7.20000000E-01  7.20000000E-01  7.20000000E-01
  7.20000000E-01  7.20000000E-01  8.50000000E-01  7.20000000E-01  7.20000000E-01
  7.20000000E-01  7.20000000E-01  7.20000000E-01  8.50000000E-01  8.50000000E-01
  7.20000000E-01  8.50000000E-01  7.20000000E-01  7.20000000E-01  8.50000000E-01
  8.50000000E-01  8.50000000E-01  7.20000000E-01  7.20000000E-01  8.50000000E-01
  7.20000000E-01  7.20000000E-01  8.50000000E-01  7.20000000E-01  7.20000000E-01
  8.50000000E-01  7.20000000E-01  7.20000000E-01  8.50000000E-01  7.20000000E-01
  8.50000000E-01  8.50000000E-01  8.50000000E-01  7.20000000E-01  7.20000000E-01
  7.20000000E-01  7.20000000E-01  7.20000000E-01  8.50000000E-01  7.20000000E-01
  7.20000000E-01  7.20000000E-01  7.20000000E-01  7.20000000E-01  8.50000000E-01
  8.50000000E-01  7.20000000E-01  8.50000000E-01  7.20000000E-01  7.20000000E-01
  8.50000000E-01  8.50000000E-01  8.50000000E-01  7.20000000E-01  7.20000000E-01
  8.50000000E-01  7.20000000E-01  7.20000000E-01  8.50000000E-01  7.20000000E-01
  7.20000000E-01  8.50000000E-01  7.20000000E-01  7.20000000E-01  8.50000000E-01
  7.20000000E-01  8.50000000E-01  8.50000000E-01  8.50000000E-01  7.20000000E-01
  7.20000000E-01  7.20000000E-01  7.20000000E-01  7.20000000E-01  8.50000000E-01
  7.20000000E-01  7.20000000E-01  7.20000000E-01  7.20000000E-01  7.20000000E-01
  8.50000000E-01  8.50000000E-01  7.20000000E-01  8.50000000E-01  7.20000000E-01
  7.20000000E-01  8.50000000E-01  8.50000000E-01  8.50000000E-01  7.20000000E-01
  7.20000000E-01  8.50000000E-01  7.20000000E-01  7.20000000E-01  8.50000000E-01
  7.20000000E-01  7.20000000E-01  8.50000000E-01  7.20000000E-01  7.20000000E-01
  8.50000000E-01  7.20000000E-01  8.50000000E-01  8.50000000E-01  8.50000000E-01
  7.20000000E-01  7.20000000E-01  7.20000000E-01  7.20000000E-01  7.20000000E-01
  8.50000000E-01  7.20000000E-01  7.20000000E-01  7.20000000E-01  7.20000000E-01
  7.20000000E-01  8.50000000E-01  8.50000000E-01  7.20000000E-01  8.50000000E-01
  7.20000000E-01  7.20000000E-01  8.50000000E-01  8.50000000E-01  8.50000000E-01
  7.20000000E-01  7.20000000E-01  8.50000000E-01  7.20000000E-01  7.20000000E-01
  8.50000000E-01  7.20000000E-01  7.20000000E-01  8.50000000E-01  7.20000000E-01
  7.20000000E-01  8.50000000E-01  7.20000000E-01  8.50000000E-01  8.50000000E-01
  8.50000000E-01  7.20000000E-01  7.20000000E-01  7.20000000E-01  7.20000000E-01
  7.20000000E-01  8.50000000E-01  7.20000000E-01  7.20000000E-01  7.20000000E-01
  7.20000000E-01  7.20000000E-01  8.50000000E-01  8.50000000E-01  7.20000000E-01
  8.50000000E-01  7.20000000E-01  7.20000000E-01  8.50000000E-01  8.50000000E-01
  8.50000000E-01  7.20000000E-01  7.20000000E-01  8.50000000E-01  7.20000000E-01
  7.20000000E-01  8.50000000E-01  7.20000000E-01  7.20000000E-01  8.50000000E-01
  7.20000000E-01  7.20000000E-01  8.50000000E-01  7.20000000E-01  8.50000000E-01
  8.50000000E-01  8.50000000E-01  7.20000000E-01  7.20000000E-01  7.20000000E-01
  7.20000000E-01  7.20000000E-01  8.50000000E-01  7.20000000E-01  7.20000000E-01
  7.20000000E-01  7.20000000E-01  7.20000000E-01  8.50000000E-01  8.50000000E-01
  7.20000000E-01  8.50000000E-01  7.20000000E-01  7.20000000E-01  8.50000000E-01
  8.50000000E-01  8.50000000E-01  7.20000000E-01  7.20000000E-01  8.50000000E-01
  7.20000000E-01  7.20000000E-01  8.50000000E-01  7.20000000E-01  7.20000000E-01
  8.50000000E-01  7.20000000E-01  7.20000000E-01  8.50000000E-01  7.20000000E-01
  8.50000000E-01  8.50000000E-01  8.50000000E-01  7.20000000E-01  7.20000000E-01
  7.20000000E-01  7.20000000E-01  7.20000000E-01  8.50000000E-01  7.20000000E-01
  7.20000000E-01  7.20000000E-01  7.20000000E-01  7.20000000E-01  8.50000000E-01
  8.50000000E-01  7.20000000E-01  8.50000000E-01  7.20000000E-01  7.20000000E-01
  8.50000000E-01  8.50000000E-01  8.50000000E-01  7.20000000E-01  7.20000000E-01
  8.50000000E-01  7.20000000E-01  7.20000000E-01  8.50000000E-01  7.20000000E-01
  7.20000000E-01  8.50000000E-01  7.20000000E-01  7.20000000E-01  8.50000000E-01
  7.20000000E-01  8.50000000E-01  8.50000000E-01  8.50000000E-01  7.20000000E-01
  7.20000000E-01  7.20000000E-01  7.20000000E-01  7.20000000E-01  8.50000000E-01
  7.20000000E-01  7.20000000E-01  7.20000000E-01  7.20000000E-01  7.20000000E-01
  8.50000000E-01  8.50000000E-01  7.20000000E-01  8.50000000E-01  7.20000000E-01
  7.20000000E-01  8.50000000E-01  8.50000000E-01  8.50000000E-01  7.20000000E-01
  7.20000000E-01  8.50000000E-01  7.20000000E-01  7.20000000E-01  8.50000000E-01
  7.20000000E-01  7.20000000E-01  8.50000000E-01  7.20000000E-01  7.20000000E-01
  8.50000000E-01  7.20000000E-01  8.50000000E-01  8.50000000E-01  8.50000000E-01
  7.20000000E-01  7.20000000E-01  7.20000000E-01  7.20000000E-01  7.20000000E-01
  8.50000000E-01  7.20000000E-01  7.20000000E-01  7.20000000E-01  7.20000000E-01
  7.20000000E-01  8.50000000E-01  8.50000000E-01  7.20000000E-01  8.50000000E-01
  7.20000000E-01  7.20000000E-01  8.50000000E-01  8.50000000E-01  8.50000000E-01
  7.20000000E-01  7.20000000E-01  8.50000000E-01  7.20000000E-01  7.20000000E-01
  8.50000000E-01  7.20000000E-01  7.20000000E-01  8.50000000E-01  7.20000000E-01
  7.20000000E-01  8.50000000E-01  7.20000000E-01  8.50000000E-01  8.50000000E-01
  8.50000000E-01  7.20000000E-01  7.20000000E-01  7.20000000E-01  7.20000000E-01
  7.20000000E-01  8.50000000E-01  7.20000000E-01  7.20000000E-01  7.20000000E-01
  7.20000000E-01  7.20000000E-01  8.50000000E-01  8.50000000E-01  7.20000000E-01
  8.50000000E-01  7.20000000E-01  7.20000000E-01  8.50000000E-01  8.50000000E-01
  8.50000000E-01  7.20000000E-01  7.20000000E-01  8.50000000E-01  7.20000000E-01
  7.20000000E-01  8.50000000E-01  7.20000000E-01  7.20000000E-01  8.50000000E-01
  7.20000000E-01  7.20000000E-01  8.50000000E-01  7.20000000E-01  8.50000000E-01
  8.50000000E-01  8.50000000E-01  7.20000000E-01  7.20000000E-01  7.20000000E-01
  7.20000000E-01  7.20000000E-01  8.50000000E-01  7.20000000E-01  7.20000000E-01
  7.20000000E-01  7.20000000E-01  7.20000000E-01  8.50000000E-01  8.50000000E-01
  7.20000000E-01  8.50000000E-01  7.20000000E-01  7.20000000E-01  8.50000000E-01
  8.50000000E-01  8.50000000E-01  7.20000000E-01  7.20000000E-01  8.50000000E-01
  7.20000000E-01  7.20000000E-01  8.50000000E-01  7.20000000E-01  7.20000000E-01
  8.50000000E-01  7.20000000E-01  7.20000000E-01  8.50000000E-01  7.20000000E-01
  8.50000000E-01  8.50000000E-01  8.50000000E-01  7.20000000E-01  7.20000000E-01
  7.20000000E-01  7.20000000E-01  7.20000000E-01  8.50000000E-01  7.20000000E-01
  7.20000000E-01  7.20000000E-01  7.20000000E-01  7.20000000E-01  8.50000000E-01
  8.50000000E-01  7.20000000E-01  8.50000000E-01  7.20000000E-01  7.20000000E-01
  8.50000000E-01  8.50000000E-01  8.50000000E-01  7.20000000E-01  7.20000000E-01
  8.50000000E-01  7.20000000E-01  7.20000000E-01  8.50000000E-01  7.20000000E-01
  7.20000000E-01  8.50000000E-01  7.20000000E-01  7.20000000E-01  8.50000000E-01
  7.20000000E-01  8.50000000E-01  8.50000000E-01  8.50000000E-01  7.20000000E-01
  7.20000000E-01  7.20000000E-01  7.20000000E-01  7.20000000E-01  8.50000000E-01
  7.20000000E-01  7.20000000E-01  7.20000000E-01  7.20000000E-01  7.20000000E-01
  8.50000000E-01  8.50000000E-01  7.20000000E-01  8.50000000E-01  7.20000000E-01
  7.20000000E-01  8.50000000E-01  8.50000000E-01  8.50000000E-01  7.20000000E-01
  7.20000000E-01  8.50000000E-01  7.20000000E-01  7.20000000E-01  8.50000000E-01
  7.20000000E-01  7.20000000E-01  8.50000000E-01  7.20000000E-01  7.20000000E-01
  8.50000000E-01  7.20000000E-01  8.50000000E-01  8.50000000E-01  8.50000000E-01
  7.20000000E-01  7.20000000E-01  7.20000000E-01  7.20000000E-01  7.20000000E-01
  8.50000000E-01  7.20000000E-01  7.20000000E-01  7.20000000E-01  7.20000000E-01
  7.20000000E-01  8.50000000E-01  8.50000000E-01  7.20000000E-01  8.50000000E-01
  7.20000000E-01  7.20000000E-01  8.50000000E-01  8.50000000E-01  8.50000000E-01
  7.20000000E-01  7.20000000E-01  8.50000000E-01  7.20000000E-01  7.20000000E-01
  8.50000000E-01  7.20000000E-01  7.20000000E-01  8.50000000E-01  7.20000000E-01
  7.20000000E-01  8.50000000E-01  7.20000000E-01  8.50000000E-01  8.50000000E-01
  8.50000000E-01  7.20000000E-01  7.20000000E-01  7.20000000E-01  7.20000000E-01
  7.20000000E-01  8.50000000E-01  7.20000000E-01  7.20000000E-01  7.20000000E-01
  7.20000000E-01  7.20000000E-01  8.50000000E-01  8.50000000E-01  7.20000000E-01
  8.50000000E-01  7.20000000E-01  7.20000000E-01  8.50000000E-01  8.50000000E-01
  8.50000000E-01  7.20000000E-01  7.20000000E-01  8.50000000E-01  7.20000000E-01
  7.20000000E-01  8.50000000E-01  7.20000000E-01  7.20000000E-01  8.50000000E-01
  7.20000000E-01  7.20000000E-01  8.50000000E-01  7.20000000E-01  8.50000000E-01
  8.50000000E-01  8.50000000E-01  7.20000000E-01  7.20000000E-01  7.20000000E-01
  7.20000000E-01  7.20000000E-01  8.50000000E-01  7.20000000E-01  7.20000000E-01
  7.20000000E-01  7.20000000E-01  7.20000000E-01  8.50000000E-01  8.50000000E-01
  7.20000000E-01  8.50000000E-01  7.20000000E-01  7.20000000E-01  8.50000000E-01
  8.50000000E-01  8.50000000E-01  7.20000000E-01  7.20000000E-01  8.50000000E-01
  7.20000000E-01  7.20000000E-01  8.50000000E-01  7.20000000E-01  7.20000000E-01
  8.50000000E-01  7.20000000E-01  7.20000000E-01  8.50000000E-01  7.20000000E-01
  8.50000000E-01  8.50000000E-01  8.50000000E-01  7.20000000E-01  7.20000000E-01
  7.20000000E-01  7.20000000E-01  7.20000000E-01  8.50000000E-01  7.20000000E-01
  7.20000000E-01  7.20000000E-01  7.20000000E-01  7.20000000E-01  8.50000000E-01
  8.50000000E-01  7.20000000E-01  8.50000000E-01  7.20000000E-01  7.20000000E-01
  8.50000000E-01  8.50000000E-01  8.50000000E-01  7.20000000E-01  7.20000000E-01
  8.50000000E-01  7.20000000E-01  7.20000000E-01  8.50000000E-01  7.20000000E-01
  7.20000000E-01  8.50000000E-01  7.20000000E-01  7.20000000E-01  8.50000000E-01
  7.20000000E-01  8.50000000E-01  8.50000000E-01  8.50000000E-01  7.20000000E-01
  7.20000000E-01  7.20000000E-01  7.20000000E-01  7.20000000E-01  8.50000000E-01
  7.20000000E-01  7.20000000E-01  7.20000000E-01  7.20000000E-01  7.20000000E-01
  8.50000000E-01  8.50000000E-01  7.20000000E-01  8.50000000E-01  7.20000000E-01
  7.20000000E-01  8.50000000E-01  8.50000000E-01  8.50000000E-01  7.20000000E-01
  7.20000000E-01  8.50000000E-01  7.20000000E-01  7.20000000E-01  8.50000000E-01
  7.20000000E-01  7.20000000E-01  8.50000000E-01  7.20000000E-01  7.20000000E-01
  8.50000000E-01  7.20000000E-01  8.50000000E-01  8.50000000E-01  8.50000000E-01
  7.20000000E-01  7.20000000E-01  7.20000000E-01  7.20000000E-01  7.20000000E-01
  8.50000000E-01  7.20000000E-01  7.20000000E-01  7.20000000E-01  7.20000000E-01
  7.20000000E-01  8.50000000E-01  8.50000000E-01  7.20000000E-01  8.50000000E-01
  7.20000000E-01  7.20000000E-01  8.50000000E-01  8.50000000E-01  8.50000000E-01
  7.20000000E-01  7.20000000E-01  8.50000000E-01  7.20000000E-01  7.20000000E-01
  8.50000000E-01  7.20000000E-01  7.20000000E-01  8.50000000E-01  7.20000000E-01
  7.20000000E-01  8.50000000E-01  7.20000000E-01  8.50000000E-01  8.50000000E-01
  8.50000000E-01  7.20000000E-01  7.20000000E-01  7.20000000E-01  7.20000000E-01
  7.20000000E-01  8.50000000E-01  7.20000000E-01  7.20000000E-01  7.20000000E-01
  7.20000000E-01  7.20000000E-01  8.50000000E-01  8.50000000E-01  7.20000000E-01
  8.50000000E-01  7.20000000E-01  7.20000000E-01  8.50000000E-01  8.50000000E-01
  8.50000000E-01  7.20000000E-01  7.20000000E-01  8.50000000E-01  7.20000000E-01
  7.20000000E-01  8.50000000E-01  7.20000000E-01  7.20000000E-01  8.50000000E-01
  7.20000000E-01  7.20000000E-01  8.50000000E-01  7.20000000E-01  8.50000000E-01
  8.50000000E-01  8.50000000E-01  7.20000000E-01  7.20000000E-01  7.20000000E-01
  7.20000000E-01  7.20000000E-01  8.50000000E-01  7.20000000E-01  7.20000000E-01
  7.20000000E-01  7.20000000E-01  7.20000000E-01  8.50000000E-01  8.50000000E-01
  7.20000000E-01  8.50000000E-01  7.20000000E-01  7.20000000E-01  8.50000000E-01
  8.50000000E-01  8.50000000E-01  7.20000000E-01  7.20000000E-01  8.50000000E-01
  7.20000000E-01  7.20000000E-01  8.50000000E-01  7.20000000E-01  7.20000000E-01
  8.50000000E-01  7.20000000E-01  7.20000000E-01  8.50000000E-01  7.20000000E-01
  8.50000000E-01  8.50000000E-01  8.50000000E-01  7.20000000E-01  7.20000000E-01
  7.20000000E-01  7.20000000E-01  7.20000000E-01  8.50000000E-01  7.20000000E-01
  7.20000000E-01  7.20000000E-01  7.20000000E-01  7.20000000E-01  8.50000000E-01
  8.50000000E-01  7.20000000E-01  8.50000000E-01  7.20000000E-01  7.20000000E-01
  8.50000000E-01  8.50000000E-01  8.50000000E-01  7.20000000E-01  7.20000000E-01
  8.50000000E-01  7.20000000E-01  7.20000000E-01  8.50000000E-01  7.20000000E-01
  7.20000000E-01  8.50000000E-01  7.20000000E-01  7.20000000E-01  8.50000000E-01
  7.20000000E-01  8.50000000E-01  8.50000000E-01  8.50000000E-01  7.20000000E-01
  7.20000000E-01  7.20000000E-01  7.20000000E-01  7.20000000E-01  8.50000000E-01
  7.20000000E-01  7.20000000E-01  7.20000000E-01  7.20000000E-01  7.20000000E-01
  8.50000000E-01  8.50000000E-01  7.20000000E-01  8.50000000E-01  7.20000000E-01
  7.20000000E-01  8.50000000E-01  8.50000000E-01  8.50000000E-01  7.20000000E-01
  7.20000000E-01  8.50000000E-01  7.20000000E-01  7.20000000E-01  8.50000000E-01
  7.20000000E-01  7.20000000E-01  8.50000000E-01  7.20000000E-01  7.20000000E-01
  8.50000000E-01  7.20000000E-01  8.50000000E-01  8.50000000E-01  8.50000000E-01
  7.20000000E-01  7.20000000E-01  7.20000000E-01  7.20000000E-01  7.20000000E-01
  8.50000000E-01  7.20000000E-01  7.20000000E-01  7.20000000E-01  7.20000000E-01
  7.20000000E-01  8.50000000E-01  8.50000000E-01  7.20000000E-01  8.50000000E-01
  7.20000000E-01  7.20000000E-01  8.50000000E-01  8.50000000E-01  8.50000000E-01
  7.20000000E-01  7.20000000E-01  8.50000000E-01  7.20000000E-01  7.20000000E-01
  8.50000000E-01  7.20000000E-01  7.20000000E-01  8.50000000E-01  7.20000000E-01
  7.20000000E-01  8.50000000E-01  7.20000000E-01  8.50000000E-01  8.50000000E-01
  8.50000000E-01  7.20000000E-01  7.20000000E-01  7.20000000E-01  7.20000000E-01
  7.20000000E-01  8.50000000E-01  7.20000000E-01  7.20000000E-01  7.20000000E-01
  7.20000000E-01  7.20000000E-01  8.50000000E-01  8.50000000E-01  7.20000000E-01
  8.50000000E-01  7.20000000E-01  7.20000000E-01  8.50000000E-01  8.50000000E-01
  8.50000000E-01  7.20000000E-01  7.20000000E-01  8.50000000E-01  7.20000000E-01
  7.20000000E-01  8.50000000E-01  7.20000000E-01  7.20000000E-01  8.50000000E-01
  7.20000000E-01  7.20000000E-01  8.50000000E-01  7.20000000E-01  8.50000000E-01
  8.50000000E-01  8.50000000E-01  7.20000000E-01  7.20000000E-01  7.20000000E-01
  7.20000000E-01  7.20000000E-01  8.50000000E-01  7.20000000E-01  7.20000000E-01
  7.20000000E-01  7.20000000E-01  7.20000000E-01  8.50000000E-01  8.50000000E-01
  7.20000000E-01  8.50000000E-01  7.20000000E-01  7.20000000E-01  8.50000000E-01
  8.50000000E-01  8.50000000E-01  7.20000000E-01  7.20000000E-01  8.50000000E-01
  7.20000000E-01  7.20000000E-01  8.50000000E-01  7.20000000E-01  7.20000000E-01
  8.50000000E-01  7.20000000E-01  7.20000000E-01  8.50000000E-01  7.20000000E-01
  8.50000000E-01  8.50000000E-01  8.50000000E-01  7.20000000E-01  7.20000000E-01
  7.20000000E-01  7.20000000E-01  7.20000000E-01  8.50000000E-01  7.20000000E-01
  7.20000000E-01  7.20000000E-01  7.20000000E-01  7.20000000E-01  8.50000000E-01
  8.50000000E-01  7.20000000E-01  8.50000000E-01  7.20000000E-01  7.20000000E-01
  8.50000000E-01  8.50000000E-01  8.50000000E-01  7.20000000E-01  7.20000000E-01
  8.50000000E-01  7.20000000E-01  7.20000000E-01  8.50000000E-01  7.20000000E-01
  7.20000000E-01  8.50000000E-01  7.20000000E-01  7.20000000E-01  8.50000000E-01
  7.20000000E-01  8.50000000E-01  8.50000000E-01  8.50000000E-01  7.20000000E-01
  7.20000000E-01  7.20000000E-01  7.20000000E-01  7.20000000E-01  8.50000000E-01
  7.20000000E-01  7.20000000E-01  7.20000000E-01  7.20000000E-01  7.20000000E-01
  8.50000000E-01  8.50000000E-01  7.20000000E-01  8.50000000E-01  7.20000000E-01
  7.20000000E-01  8.50000000E-01  8.50000000E-01  8.50000000E-01  7.20000000E-01
  7.20000000E-01  8.50000000E-01  7.20000000E-01  7.20000000E-01  8.50000000E-01
  7.20000000E-01  7.20000000E-01  8.50000000E-01  7.20000000E-01  7.20000000E-01
  8.50000000E-01  7.20000000E-01  8.50000000E-01  8.50000000E-01  8.50000000E-01
  7.20000000E-01  7.20000000E-01  7.20000000E-01  7.20000000E-01  7.20000000E-01
  8.50000000E-01  7.20000000E-01  7.20000000E-01  7.20000000E-01  7.20000000E-01
  7.20000000E-01  8.50000000E-01  8.50000000E-01  7.20000000E-01  8.50000000E-01
  7.20000000E-01  7.20000000E-01  8.50000000E-01  8.50000000E-01  8.50000000E-01
  7.20000000E-01  7.20000000E-01  8.50000000E-01  7.20000000E-01  7.20000000E-01
  8.50000000E-01  7.20000000E-01  7.20000000E-01  8.50000000E-01  7.20000000E-01
  7.20000000E-01  8.50000000E-01  7.20000000E-01  8.50000000E-01  8.50000000E-01
  8.50000000E-01  7.20000000E-01  7.20000000E-01  7.20000000E-01  7.20000000E-01
  7.20000000E-01  8.50000000E-01  7.20000000E-01  7.20000000E-01  7.20000000E-01
  7.20000000E-01  7.20000000E-01  8.50000000E-01  8.50000000E-01  7.20000000E-01
  8.50000000E-01  7.20000000E-01  7.20000000E-01  8.50000000E-01  8.50000000E-01
  8.50000000E-01  7.20000000E-01  7.20000000E-01  8.50000000E-01  7.20000000E-01
  7.20000000E-01  8.50000000E-01  7.20000000E-01  7.20000000E-01  8.50000000E-01
  7.20000000E-01  7.20000000E-01  8.50000000E-01  7.20000000E-01  8.50000000E-01
  8.50000000E-01  8.50000000E-01  7.20000000E-01  7.20000000E-01  7.20000000E-01
  7.20000000E-01  7.20000000E-01  8.50000000E-01  7.20000000E-01  7.20000000E-01
  7.20000000E-01  7.20000000E-01  7.20000000E-01  8.50000000E-01  8.50000000E-01
  7.20000000E-01  8.50000000E-01  7.20000000E-01  7.20000000E-01  8.50000000E-01
  8.50000000E-01  8.50000000E-01  7.20000000E-01  7.20000000E-01  8.50000000E-01
  7.20000000E-01  7.20000000E-01  8.50000000E-01  7.20000000E-01  7.20000000E-01
  8.50000000E-01  7.20000000E-01  7.20000000E-01  8.50000000E-01  7.20000000E-01
  8.50000000E-01  8.50000000E-01  8.50000000E-01  7.20000000E-01  7.20000000E-01
  7.20000000E-01  7.20000000E-01  7.20000000E-01  8.50000000E-01  7.20000000E-01
  7.20000000E-01  7.20000000E-01  7.20000000E-01  7.20000000E-01  8.50000000E-01
  8.50000000E-01  7.20000000E-01  8.50000000E-01  7.20000000E-01  7.20000000E-01
  8.50000000E-01  8.50000000E-01  8.50000000E-01  7.20000000E-01  7.20000000E-01
  8.50000000E-01  7.20000000E-01  7.20000000E-01  8.50000000E-01  7.20000000E-01
  7.20000000E-01  8.50000000E-01  7.20000000E-01  7.20000000E-01  8.50000000E-01
  7.20000000E-01  8.50000000E-01  8.50000000E-01  8.50000000E-01  7.20000000E-01
  7.20000000E-01  7.20000000E-01  7.20000000E-01  7.20000000E-01  8.50000000E-01
  7.20000000E-01  7.20000000E-01  7.20000000E-01  7.20000000E-01  7.20000000E-01
  8.50000000E-01  8.50000000E-01  7.20000000E-01  8.50000000E-01  7.20000000E-01
  7.20000000E-01  8.50000000E-01  8.50000000E-01  8.50000000E-01  7.20000000E-01
  7.20000000E-01  8.50000000E-01  7.20000000E-01  7.20000000E-01  8.50000000E-01
  7.20000000E-01  7.20000000E-01  8.50000000E-01  7.20000000E-01  7.20000000E-01
  8.50000000E-01  7.20000000E-01  8.50000000E-01  8.50000000E-01  8.50000000E-01
  7.20000000E-01  7.20000000E-01  7.20000000E-01  7.20000000E-01  7.20000000E-01
  8.50000000E-01  7.20000000E-01  7.20000000E-01  7.20000000E-01  7.20000000E-01
  7.20000000E-01  8.50000000E-01  8.50000000E-01  7.20000000E-01  8.50000000E-01
  7.20000000E-01  7.20000000E-01  8.50000000E-01  8.50000000E-01  8.50000000E-01
  7.20000000E-01  7.20000000E-01  8.50000000E-01  7.20000000E-01  7.20000000E-01
  8.50000000E-01  7.20000000E-01  7.20000000E-01  8.50000000E-01  7.20000000E-01
  7.20000000E-01  8.50000000E-01  7.20000000E-01  8.50000000E-01  8.50000000E-01
  8.50000000E-01  7.20000000E-01  7.20000000E-01  7.20000000E-01  7.20000000E-01
  7.20000000E-01  8.50000000E-01  7.20000000E-01  7.20000000E-01  7.20000000E-01
  7.20000000E-01  7.20000000E-01  8.50000000E-01  8.50000000E-01  7.20000000E-01
  8.50000000E-01  7.20000000E-01  7.20000000E-01  8.50000000E-01  8.50000000E-01
  8.50000000E-01  7.20000000E-01  7.20000000E-01  8.50000000E-01  7.20000000E-01
  7.20000000E-01  8.50000000E-01  7.20000000E-01  7.20000000E-01  8.50000000E-01
  7.20000000E-01  7.20000000E-01  8.50000000E-01  7.20000000E-01  8.50000000E-01
  8.50000000E-01  8.50000000E-01  7.20000000E-01  7.20000000E-01  7.20000000E-01
  7.20000000E-01  7.20000000E-01  8.50000000E-01  7.20000000E-01  7.20000000E-01
  7.20000000E-01  7.20000000E-01  7.20000000E-01  8.50000000E-01  8.50000000E-01
  7.20000000E-01  8.50000000E-01  7.20000000E-01  7.20000000E-01  8.50000000E-01
  8.50000000E-01  8.50000000E-01  7.20000000E-01  7.20000000E-01  8.50000000E-01
  7.20000000E-01  7.20000000E-01  8.50000000E-01  7.20000000E-01  7.20000000E-01
  8.50000000E-01  7.20000000E-01  7.20000000E-01  8.50000000E-01  7.20000000E-01
  8.50000000E-01  8.50000000E-01  8.50000000E-01  7.20000000E-01  7.20000000E-01
  7.20000000E-01  7.20000000E-01  7.20000000E-01  8.50000000E-01  7.20000000E-01
  7.20000000E-01  7.20000000E-01  7.20000000E-01  7.20000000E-01  8.50000000E-01
  8.50000000E-01  7.20000000E-01  8.50000000E-01  7.20000000E-01  7.20000000E-01
  8.50000000E-01  8.50000000E-01  8.50000000E-01  7.20000000E-01  7.20000000E-01
  8.50000000E-01  7.20000000E-01  7.20000000E-01  8.50000000E-01  7.20000000E-01
  7.20000000E-01  8.50000000E-01  7.20000000E-01  7.20000000E-01  8.50000000E-01
  7.20000000E-01  8.50000000E-01  8.50000000E-01  8.50000000E-01  7.20000000E-01
  7.20000000E-01  7.20000000E-01  7.20000000E-01  7.20000000E-01  8.50000000E-01
  7.20000000E-01  7.20000000E-01  7.20000000E-01  7.20000000E-01  7.20000000E-01
  8.50000000E-01  8.50000000E-01  7.20000000E-01  8.50000000E-01  7.20000000E-01
  7.20000000E-01  8.50000000E-01  8.50000000E-01  8.50000000E-01  7.20000000E-01
  7.20000000E-01  8.50000000E-01  7.20000000E-01  7.20000000E-01  8.50000000E-01
  7.20000000E-01  7.20000000E-01  8.50000000E-01  7.20000000E-01  7.20000000E-01
  8.50000000E-01  7.20000000E-01  8.50000000E-01  8.50000000E-01  8.50000000E-01
  7.20000000E-01  7.20000000E-01  7.20000000E-01  7.20000000E-01  7.20000000E-01
  8.50000000E-01  7.20000000E-01  7.20000000E-01  7.20000000E-01  7.20000000E-01
  7.20000000E-01  8.50000000E-01  8.50000000E-01  7.20000000E-01  8.50000000E-01
  7.20000000E-01  7.20000000E-01  8.50000000E-01  8.50000000E-01  8.50000000E-01
  7.20000000E-01  7.20000000E-01  8.50000000E-01  7.20000000E-01  7.20000000E-01
  8.50000000E-01  7.20000000E-01  7.20000000E-01  8.50000000E-01  7.20000000E-01
  7.20000000E-01  8.50000000E-01  7.20000000E-01  8.50000000E-01  8.50000000E-01
  8.50000000E-01  7.20000000E-01  7.20000000E-01  7.20000000E-01  7.20000000E-01
  7.20000000E-01  8.50000000E-01  7.20000000E-01  7.20000000E-01  7.20000000E-01
  7.20000000E-01  7.20000000E-01  8.50000000E-01  8.50000000E-01  7.20000000E-01
  8.50000000E-01  7.20000000E-01  7.20000000E-01  8.50000000E-01  8.50000000E-01
  8.50000000E-01  7.20000000E-01  7.20000000E-01  8.50000000E-01  7.20000000E-01
  7.20000000E-01  8.50000000E-01  7.20000000E-01  7.20000000E-01  8.50000000E-01
  7.20000000E-01  7.20000000E-01  8.50000000E-01  7.20000000E-01  8.50000000E-01
  8.50000000E-01  8.50000000E-01  7.20000000E-01  7.20000000E-01  7.20000000E-01
  7.20000000E-01  7.20000000E-01  8.50000000E-01  7.20000000E-01  7.20000000E-01
  7.20000000E-01  7.20000000E-01  7.20000000E-01  8.50000000E-01  8.50000000E-01
  7.20000000E-01  8.50000000E-01  7.20000000E-01  7.20000000E-01  8.50000000E-01
  8.50000000E-01  8.50000000E-01  7.20000000E-01  7.20000000E-01  8.50000000E-01
  7.20000000E-01  7.20000000E-01  8.50000000E-01  7.20000000E-01  7.20000000E-01
  8.50000000E-01  7.20000000E-01  7.20000000E-01  8.50000000E-01  7.20000000E-01
  8.50000000E-01  8.50000000E-01  8.50000000E-01  7.20000000E-01  7.20000000E-01
  7.20000000E-01  7.20000000E-01  7.20000000E-01  8.50000000E-01  7.20000000E-01
  7.20000000E-01  7.20000000E-01  7.20000000E-01  7.20000000E-01  8.50000000E-01
  8.50000000E-01  7.20000000E-01  8.50000000E-01  7.20000000E-01  7.20000000E-01
  8.50000000E-01  8.50000000E-01  8.50000000E-01  7.20000000E-01  7.20000000E-01
  8.50000000E-01  7.20000000E-01  7.20000000E-01  8.50000000E-01  7.20000000E-01
  7.20000000E-01  8.50000000E-01  7.20000000E-01  7.20000000E-01  8.50000000E-01
  7.20000000E-01  8.50000000E-01  8.50000000E-01  8.50000000E-01  7.20000000E-01
  7.20000000E-01  7.20000000E-01  7.20000000E-01  7.20000000E-01  8.50000000E-01
  7.20000000E-01  7.20000000E-01  7.20000000E-01  7.20000000E-01  7.20000000E-01
  8.50000000E-01  8.50000000E-01  7.20000000E-01  8.50000000E-01  7.20000000E-01
  7.20000000E-01  8.50000000E-01  8.50000000E-01  8.50000000E-01  7.20000000E-01
  7.20000000E-01  8.50000000E-01  7.20000000E-01  7.20000000E-01  8.50000000E-01
  7.20000000E-01  7.20000000E-01  8.50000000E-01  7.20000000E-01  7.20000000E-01
  8.50000000E-01  7.20000000E-01  8.50000000E-01  8.50000000E-01  8.50000000E-01
  7.20000000E-01  7.20000000E-01  7.20000000E-01  7.20000000E-01  7.20000000E-01
  8.50000000E-01  7.20000000E-01  7.20000000E-01  7.20000000E-01  7.20000000E-01
  7.20000000E-01  8.50000000E-01  8.50000000E-01  7.20000000E-01  8.50000000E-01
  7.20000000E-01  7.20000000E-01  8.50000000E-01  8.50000000E-01  8.50000000E-01
  7.20000000E-01  7.20000000E-01  8.50000000E-01  7.20000000E-01  7.20000000E-01
  8.50000000E-01  7.20000000E-01  7.20000000E-01  8.50000000E-01  7.20000000E-01
  7.20000000E-01  8.50000000E-01  7.20000000E-01  8.50000000E-01  8.50000000E-01
  8.50000000E-01  7.20000000E-01  7.20000000E-01  7.20000000E-01  7.20000000E-01
  7.20000000E-01  8.50000000E-01  7.20000000E-01  7.20000000E-01  7.20000000E-01
  7.20000000E-01  7.20000000E-01  8.50000000E-01  8.50000000E-01  7.20000000E-01
  8.50000000E-01  7.20000000E-01  7.20000000E-01  8.50000000E-01  8.50000000E-01
  8.50000000E-01  7.20000000E-01  7.20000000E-01  8.50000000E-01  7.20000000E-01
  7.20000000E-01  8.50000000E-01  7.20000000E-01  7.20000000E-01  8.50000000E-01
  7.20000000E-01  7.20000000E-01  8.50000000E-01  7.20000000E-01  8.50000000E-01
  8.50000000E-01  8.50000000E-01  7.20000000E-01  7.20000000E-01  7.20000000E-01
  7.20000000E-01  7.20000000E-01  8.50000000E-01  7.20000000E-01  7.20000000E-01
  7.20000000E-01  7.20000000E-01  7.20000000E-01  8.50000000E-01  8.50000000E-01
  7.20000000E-01  8.50000000E-01  7.20000000E-01  7.20000000E-01  8.50000000E-01
  8.50000000E-01  8.50000000E-01  7.20000000E-01  7.20000000E-01  8.50000000E-01
  7.20000000E-01  7.20000000E-01  8.50000000E-01  7.20000000E-01  7.20000000E-01
  8.50000000E-01  7.20000000E-01  7.20000000E-01  8.50000000E-01  7.20000000E-01
  8.50000000E-01  8.50000000E-01  8.50000000E-01  7.20000000E-01  7.20000000E-01
  7.20000000E-01  7.20000000E-01  7.20000000E-01  8.50000000E-01  7.20000000E-01
  7.20000000E-01  7.20000000E-01  7.20000000E-01  7.20000000E-01  8.50000000E-01
  8.50000000E-01  7.20000000E-01  8.50000000E-01  7.20000000E-01  7.20000000E-01
  8.50000000E-01  8.50000000E-01  8.50000000E-01  7.20000000E-01  7.20000000E-01
  8.50000000E-01  7.20000000E-01  7.20000000E-01  8.50000000E-01  7.20000000E-01
  7.20000000E-01  8.50000000E-01  7.20000000E-01  7.20000000E-01  8.50000000E-01
  7.20000000E-01  8.50000000E-01  8.50000000E-01  8.50000000E-01  7.20000000E-01
  7.20000000E-01  7.20000000E-01  7.20000000E-01  7.20000000E-01  8.50000000E-01
  7.20000000E-01  7.20000000E-01  7.20000000E-01  7.20000000E-01  7.20000000E-01
  8.50000000E-01  8.50000000E-01  7.20000000E-01  8.50000000E-01  7.20000000E-01
  7.20000000E-01  8.50000000E-01  8.50000000E-01  8.50000000E-01  7.20000000E-01
  7.20000000E-01  8.50000000E-01  7.20000000E-01  7.20000000E-01  8.50000000E-01
  7.20000000E-01  7.20000000E-01  8.50000000E-01  7.20000000E-01  7.20000000E-01
  8.50000000E-01  7.20000000E-01  8.50000000E-01  8.50000000E-01  8.50000000E-01
  7.20000000E-01  7.20000000E-01  7.20000000E-01  7.20000000E-01  7.20000000E-01
  8.50000000E-01  7.20000000E-01  7.20000000E-01  7.20000000E-01  7.20000000E-01
  7.20000000E-01  8.50000000E-01  8.50000000E-01  7.20000000E-01  8.50000000E-01
  7.20000000E-01  7.20000000E-01  8.50000000E-01  8.50000000E-01  8.50000000E-01
  7.20000000E-01  7.20000000E-01  8.50000000E-01  7.20000000E-01  7.20000000E-01
  8.50000000E-01  7.20000000E-01  7.20000000E-01  8.50000000E-01  7.20000000E-01
  7.20000000E-01  8.50000000E-01  7.20000000E-01  8.50000000E-01  8.50000000E-01
  8.50000000E-01  7.20000000E-01  7.20000000E-01  7.20000000E-01  7.20000000E-01
  7.20000000E-01  8.50000000E-01  7.20000000E-01  7.20000000E-01  7.20000000E-01
  7.20000000E-01  7.20000000E-01  8.50000000E-01  8.50000000E-01  7.20000000E-01
  8.50000000E-01  7.20000000E-01  7.20000000E-01  8.50000000E-01  8.50000000E-01
  8.50000000E-01  7.20000000E-01  7.20000000E-01  8.50000000E-01  7.20000000E-01
  7.20000000E-01  8.50000000E-01  7.20000000E-01  7.20000000E-01  8.50000000E-01
  7.20000000E-01  7.20000000E-01  8.50000000E-01  7.20000000E-01  8.50000000E-01
  8.50000000E-01  8.50000000E-01  7.20000000E-01  7.20000000E-01  7.20000000E-01
  7.20000000E-01  7.20000000E-01  8.50000000E-01  7.20000000E-01  7.20000000E-01
  7.20000000E-01  7.20000000E-01  7.20000000E-01  8.50000000E-01  8.50000000E-01
  7.20000000E-01  8.50000000E-01  7.20000000E-01  7.20000000E-01  8.50000000E-01
  8.50000000E-01  8.50000000E-01  7.20000000E-01  7.20000000E-01  8.50000000E-01
  7.20000000E-01  7.20000000E-01  8.50000000E-01  7.20000000E-01  7.20000000E-01
  8.50000000E-01  7.20000000E-01  7.20000000E-01  8.50000000E-01  7.20000000E-01
  8.50000000E-01  8.50000000E-01  8.50000000E-01  7.20000000E-01  7.20000000E-01
  7.20000000E-01  7.20000000E-01  7.20000000E-01  8.50000000E-01  7.20000000E-01
  7.20000000E-01  7.20000000E-01  7.20000000E-01  7.20000000E-01  8.50000000E-01
  8.50000000E-01  7.20000000E-01  8.50000000E-01  7.20000000E-01  7.20000000E-01
  8.50000000E-01  8.50000000E-01  8.50000000E-01  7.20000000E-01  7.20000000E-01
  8.50000000E-01  7.20000000E-01  7.20000000E-01  8.50000000E-01  7.20000000E-01
  7.20000000E-01  8.50000000E-01  7.20000000E-01  7.20000000E-01  8.50000000E-01
  7.20000000E-01  8.50000000E-01  8.50000000E-01  8.50000000E-01  7.20000000E-01
  7.20000000E-01  7.20000000E-01  7.20000000E-01  7.20000000E-01  8.50000000E-01
  7.20000000E-01  7.20000000E-01  7.20000000E-01  7.20000000E-01  7.20000000E-01
  8.50000000E-01  8.50000000E-01  7.20000000E-01  8.50000000E-01  7.20000000E-01
  7.20000000E-01  8.50000000E-01  8.50000000E-01  8.50000000E-01  7.20000000E-01
  7.20000000E-01  8.50000000E-01  7.20000000E-01  7.20000000E-01  8.50000000E-01
  7.20000000E-01  7.20000000E-01  8.50000000E-01  7.20000000E-01  7.20000000E-01
  8.50000000E-01  7.20000000E-01  8.50000000E-01  8.50000000E-01  8.50000000E-01
  7.20000000E-01  7.20000000E-01  7.20000000E-01  7.20000000E-01  7.20000000E-01
  8.50000000E-01  7.20000000E-01  7.20000000E-01  7.20000000E-01  7.20000000E-01
  7.20000000E-01  8.50000000E-01  8.50000000E-01  7.20000000E-01  8.50000000E-01
  7.20000000E-01  7.20000000E-01  8.50000000E-01  8.50000000E-01  8.50000000E-01
  7.20000000E-01  7.20000000E-01  8.50000000E-01  7.20000000E-01  7.20000000E-01
  8.50000000E-01  7.20000000E-01  7.20000000E-01  8.50000000E-01  7.20000000E-01
  7.20000000E-01  8.50000000E-01  7.20000000E-01  8.50000000E-01  8.50000000E-01
  8.50000000E-01  7.20000000E-01  7.20000000E-01  7.20000000E-01  7.20000000E-01
  7.20000000E-01  8.50000000E-01  7.20000000E-01  7.20000000E-01  7.20000000E-01
  7.20000000E-01  7.20000000E-01  8.50000000E-01  8.50000000E-01  7.20000000E-01
  8.50000000E-01  7.20000000E-01  7.20000000E-01  8.50000000E-01  8.50000000E-01
  8.50000000E-01  7.20000000E-01  7.20000000E-01  8.50000000E-01  7.20000000E-01
  7.20000000E-01  8.50000000E-01  7.20000000E-01  7.20000000E-01  8.50000000E-01
  7.20000000E-01  7.20000000E-01  8.50000000E-01  7.20000000E-01  8.50000000E-01
  8.50000000E-01  8.50000000E-01  7.20000000E-01  7.20000000E-01  7.20000000E-01
  7.20000000E-01  7.20000000E-01  8.50000000E-01  7.20000000E-01  7.20000000E-01
  7.20000000E-01  7.20000000E-01  7.20000000E-01  8.50000000E-01  8.50000000E-01
  7.20000000E-01  8.50000000E-01  7.20000000E-01  7.20000000E-01  8.50000000E-01
  8.50000000E-01  8.50000000E-01  7.20000000E-01  7.20000000E-01  8.50000000E-01
  7.20000000E-01  7.20000000E-01  8.50000000E-01  7.20000000E-01  7.20000000E-01
  8.50000000E-01  7.20000000E-01  7.20000000E-01  8.50000000E-01  7.20000000E-01
  8.50000000E-01  8.50000000E-01  8.50000000E-01  7.20000000E-01  7.20000000E-01
  7.20000000E-01  7.20000000E-01  7.20000000E-01  8.50000000E-01  7.20000000E-01
  7.20000000E-01  7.20000000E-01  7.20000000E-01  7.20000000E-01  8.50000000E-01
  8.50000000E-01  7.20000000E-01  8.50000000E-01  7.20000000E-01  7.20000000E-01
  8.50000000E-01  8.50000000E-01  8.50000000E-01  7.20000000E-01  7.20000000E-01
  8.50000000E-01  7.20000000E-01  7.20000000E-01  8.50000000E-01  7.20000000E-01
  7.20000000E-01  8.50000000E-01  7.20000000E-01  7.20000000E-01  8.50000000E-01
  7.20000000E-01  8.50000000E-01  8.50000000E-01  8.50000000E-01  7.20000000E-01
  7.20000000E-01  7.20000000E-01  7.20000000E-01  7.20000000E-01  8.50000000E-01
  7.20000000E-01  7.20000000E-01  7.20000000E-01  7.20000000E-01  7.20000000E-01
  8.50000000E-01  8.50000000E-01  7.20000000E-01  8.50000000E-01  7.20000000E-01
  7.20000000E-01  8.50000000E-01  8.50000000E-01  8.50000000E-01  7.20000000E-01
  7.20000000E-01  8.50000000E-01  7.20000000E-01  7.20000000E-01  8.50000000E-01
  7.20000000E-01  7.20000000E-01  8.50000000E-01  7.20000000E-01  7.20000000E-01
  8.50000000E-01  7.20000000E-01  8.50000000E-01  8.50000000E-01  8.50000000E-01
  7.20000000E-01  7.20000000E-01  7.20000000E-01  7.20000000E-01  7.20000000E-01
  8.50000000E-01  7.20000000E-01  7.20000000E-01  7.20000000E-01  7.20000000E-01
  7.20000000E-01  8.50000000E-01  8.50000000E-01  7.20000000E-01  8.50000000E-01
  7.20000000E-01  7.20000000E-01  8.50000000E-01  8.50000000E-01  8.50000000E-01
  7.20000000E-01  7.20000000E-01  8.50000000E-01  7.20000000E-01  7.20000000E-01
  8.50000000E-01  7.20000000E-01  7.20000000E-01  8.50000000E-01  7.20000000E-01
  7.20000000E-01  8.50000000E-01  7.20000000E-01  8.50000000E-01  8.50000000E-01
  8.50000000E-01  7.20000000E-01  7.20000000E-01  7.20000000E-01  7.20000000E-01
  7.20000000E-01  8.50000000E-01  7.20000000E-01  7.20000000E-01  7.20000000E-01
  7.20000000E-01  7.20000000E-01  8.50000000E-01  8.50000000E-01  7.20000000E-01
  8.50000000E-01  7.20000000E-01  7.20000000E-01  8.50000000E-01  8.50000000E-01
  8.50000000E-01  7.20000000E-01  7.20000000E-01  8.50000000E-01  7.20000000E-01
  7.20000000E-01  8.50000000E-01  7.20000000E-01  7.20000000E-01  8.50000000E-01
  7.20000000E-01  7.20000000E-01  8.50000000E-01  7.20000000E-01  8.50000000E-01
  8.50000000E-01  8.50000000E-01  7.20000000E-01  7.20000000E-01  7.20000000E-01
  7.20000000E-01  7.20000000E-01  8.50000000E-01  7.20000000E-01  7.20000000E-01
  7.20000000E-01  7.20000000E-01  7.20000000E-01  8.50000000E-01  8.50000000E-01
  7.20000000E-01  8.50000000E-01  7.20000000E-01  7.20000000E-01  8.50000000E-01
  8.50000000E-01  8.50000000E-01  7.20000000E-01  7.20000000E-01  8.50000000E-01
  7.20000000E-01  7.20000000E-01  8.50000000E-01  7.20000000E-01  7.20000000E-01
  8.50000000E-01  7.20000000E-01  7.20000000E-01  8.50000000E-01  7.20000000E-01
  8.50000000E-01  8.50000000E-01  8.50000000E-01  7.20000000E-01  7.20000000E-01
  7.20000000E-01  7.20000000E-01  7.20000000E-01  8.50000000E-01  7.20000000E-01
  7.20000000E-01  7.20000000E-01  7.20000000E-01  7.20000000E-01  8.50000000E-01
  8.50000000E-01  7.20000000E-01  8.50000000E-01  7.20000000E-01  7.20000000E-01
  8.50000000E-01  8.50000000E-01  8.50000000E-01  7.20000000E-01  7.20000000E-01
  8.50000000E-01  7.20000000E-01  7.20000000E-01  8.50000000E-01  7.20000000E-01
  7.20000000E-01  8.50000000E-01  7.20000000E-01  7.20000000E-01  8.50000000E-01
  7.20000000E-01  8.50000000E-01  8.50000000E-01  8.50000000E-01  7.20000000E-01
  7.20000000E-01  7.20000000E-01  7.20000000E-01  7.20000000E-01  8.50000000E-01
  7.20000000E-01  7.20000000E-01  7.20000000E-01  7.20000000E-01  7.20000000E-01
  8.50000000E-01  8.50000000E-01  7.20000000E-01  8.50000000E-01  7.20000000E-01
  7.20000000E-01  8.50000000E-01  8.50000000E-01  8.50000000E-01  7.20000000E-01
  7.20000000E-01  8.50000000E-01  7.20000000E-01  7.20000000E-01  8.50000000E-01
  7.20000000E-01  7.20000000E-01  8.50000000E-01  7.20000000E-01  7.20000000E-01
  8.50000000E-01  7.20000000E-01  8.50000000E-01  8.50000000E-01  8.50000000E-01
  7.20000000E-01  7.20000000E-01  7.20000000E-01  7.20000000E-01  7.20000000E-01
  8.50000000E-01  7.20000000E-01  7.20000000E-01  7.20000000E-01  7.20000000E-01
  7.20000000E-01  8.50000000E-01  8.50000000E-01  7.20000000E-01  8.50000000E-01
  7.20000000E-01  7.20000000E-01  8.50000000E-01  8.50000000E-01  8.50000000E-01
  7.20000000E-01  7.20000000E-01  8.50000000E-01  7.20000000E-01  7.20000000E-01
  8.50000000E-01  7.20000000E-01  7.20000000E-01  8.50000000E-01  7.20000000E-01
  7.20000000E-01  8.50000000E-01  7.20000000E-01  8.50000000E-01  8.50000000E-01
  8.50000000E-01  7.20000000E-01  7.20000000E-01  7.20000000E-01  7.20000000E-01
  7.20000000E-01  8.50000000E-01  7.20000000E-01  7.20000000E-01  7.20000000E-01
  7.20000000E-01  7.20000000E-01  8.50000000E-01  8.50000000E-01  7.20000000E-01
  8.50000000E-01  7.20000000E-01  7.20000000E-01  8.50000000E-01  8.50000000E-01
  8.50000000E-01  7.20000000E-01  7.20000000E-01  8.50000000E-01  7.20000000E-01
  7.20000000E-01  8.50000000E-01  7.20000000E-01  7.20000000E-01  8.50000000E-01
  7.20000000E-01  7.20000000E-01  8.50000000E-01  7.20000000E-01  8.50000000E-01
  8.50000000E-01  8.50000000E-01  7.20000000E-01  7.20000000E-01  7.20000000E-01
  7.20000000E-01  7.20000000E-01  8.50000000E-01  7.20000000E-01  7.20000000E-01
  7.20000000E-01  7.20000000E-01  7.20000000E-01  8.50000000E-01  8.50000000E-01
  7.20000000E-01  8.50000000E-01  7.20000000E-01  7.20000000E-01  8.50000000E-01
  8.50000000E-01  8.50000000E-01  7.20000000E-01  7.20000000E-01  8.50000000E-01
  7.20000000E-01  7.20000000E-01  8.50000000E-01  7.20000000E-01  7.20000000E-01
  8.50000000E-01  7.20000000E-01  7.20000000E-01  8.50000000E-01  7.20000000E-01
  8.50000000E-01  8.50000000E-01  8.50000000E-01  7.20000000E-01  7.20000000E-01
  7.20000000E-01  7.20000000E-01  7.20000000E-01  8.50000000E-01  7.20000000E-01
  7.20000000E-01  7.20000000E-01  7.20000000E-01  7.20000000E-01  8.50000000E-01
  8.50000000E-01  7.20000000E-01  8.50000000E-01  7.20000000E-01  7.20000000E-01
  8.50000000E-01  8.50000000E-01  8.50000000E-01  7.20000000E-01  7.20000000E-01
  8.50000000E-01  7.20000000E-01  7.20000000E-01  8.50000000E-01  7.20000000E-01
  7.20000000E-01  8.50000000E-01  7.20000000E-01  7.20000000E-01  8.50000000E-01
  7.20000000E-01  8.50000000E-01  8.50000000E-01  8.50000000E-01  7.20000000E-01
  7.20000000E-01  7.20000000E-01  7.20000000E-01  7.20000000E-01  8.50000000E-01
  7.20000000E-01  7.20000000E-01  7.20000000E-01  7.20000000E-01  7.20000000E-01
  8.50000000E-01  8.50000000E-01  7.20000000E-01  8.50000000E-01  7.20000000E-01
  7.20000000E-01  8.50000000E-01  8.50000000E-01  8.50000000E-01  7.20000000E-01
  7.20000000E-01  8.50000000E-01  7.20000000E-01  7.20000000E-01  8.50000000E-01
  7.20000000E-01  7.20000000E-01  8.50000000E-01  7.20000000E-01  7.20000000E-01
  8.50000000E-01  7.20000000E-01  8.50000000E-01  8.50000000E-01  8.50000000E-01
  7.20000000E-01  7.20000000E-01  7.20000000E-01  7.20000000E-01  7.20000000E-01
  8.50000000E-01  7.20000000E-01  7.20000000E-01  7.20000000E-01  7.20000000E-01
  7.20000000E-01  8.50000000E-01  8.50000000E-01  7.20000000E-01  8.50000000E-01
  7.20000000E-01  7.20000000E-01  8.50000000E-01  8.50000000E-01  8.50000000E-01
  7.20000000E-01  7.20000000E-01  8.50000000E-01  7.20000000E-01  7.20000000E-01
  8.50000000E-01  7.20000000E-01  7.20000000E-01  8.50000000E-01  7.20000000E-01
  7.20000000E-01  8.50000000E-01  7.20000000E-01  8.50000000E-01  8.50000000E-01
  8.50000000E-01  7.20000000E-01  7.20000000E-01  7.20000000E-01  7.20000000E-01
  7.20000000E-01  8.50000000E-01  7.20000000E-01  7.20000000E-01  7.20000000E-01
  7.20000000E-01  7.20000000E-01  8.50000000E-01  8.50000000E-01  7.20000000E-01
  8.50000000E-01  7.20000000E-01  7.20000000E-01  8.50000000E-01  8.50000000E-01
  8.50000000E-01  7.20000000E-01  7.20000000E-01  8.50000000E-01  7.20000000E-01
  7.20000000E-01  8.50000000E-01  7.20000000E-01  7.20000000E-01  8.50000000E-01
  7.20000000E-01  7.20000000E-01  8.50000000E-01  7.20000000E-01  8.50000000E-01
  8.50000000E-01  8.50000000E-01  7.20000000E-01  7.20000000E-01  7.20000000E-01
  7.20000000E-01  7.20000000E-01  8.50000000E-01  7.20000000E-01  7.20000000E-01
  7.20000000E-01  7.20000000E-01  7.20000000E-01  8.50000000E-01  8.50000000E-01
  7.20000000E-01  8.50000000E-01  7.20000000E-01  7.20000000E-01  8.50000000E-01
  8.50000000E-01  8.50000000E-01  7.20000000E-01  7.20000000E-01  8.50000000E-01
  7.20000000E-01  7.20000000E-01  8.50000000E-01  7.20000000E-01  7.20000000E-01
  8.50000000E-01  7.20000000E-01  7.20000000E-01  8.50000000E-01  7.20000000E-01
  8.50000000E-01  8.50000000E-01  8.50000000E-01  7.20000000E-01  7.20000000E-01
  7.20000000E-01  7.20000000E-01  7.20000000E-01  8.50000000E-01  7.20000000E-01
  7.20000000E-01  7.20000000E-01  7.20000000E-01  7.20000000E-01  8.50000000E-01
  8.50000000E-01  7.20000000E-01  8.50000000E-01  7.20000000E-01  7.20000000E-01
  8.50000000E-01  8.50000000E-01  8.50000000E-01  7.20000000E-01  7.20000000E-01
  8.50000000E-01  7.20000000E-01  7.20000000E-01  8.50000000E-01  7.20000000E-01
  7.20000000E-01  8.50000000E-01  7.20000000E-01  7.20000000E-01  8.50000000E-01
  7.20000000E-01  8.50000000E-01  8.50000000E-01  8.50000000E-01  7.20000000E-01
  7.20000000E-01  7.20000000E-01  7.20000000E-01  7.20000000E-01  8.50000000E-01
  7.20000000E-01  7.20000000E-01  7.20000000E-01  7.20000000E-01  7.20000000E-01
  8.50000000E-01  8.50000000E-01  7.20000000E-01  8.50000000E-01  7.20000000E-01
  7.20000000E-01  8.50000000E-01  8.50000000E-01  8.50000000E-01  7.20000000E-01
  7.20000000E-01  8.50000000E-01  7.20000000E-01  7.20000000E-01  8.50000000E-01
  7.20000000E-01  7.20000000E-01  8.50000000E-01  7.20000000E-01  7.20000000E-01
  8.50000000E-01  7.20000000E-01  8.50000000E-01  8.50000000E-01  8.50000000E-01
  7.20000000E-01  7.20000000E-01  7.20000000E-01  7.20000000E-01  7.20000000E-01
  8.50000000E-01  7.20000000E-01  7.20000000E-01  7.20000000E-01  7.20000000E-01
  7.20000000E-01  8.50000000E-01  8.50000000E-01  7.20000000E-01  8.50000000E-01
  7.20000000E-01  7.20000000E-01  8.50000000E-01  8.50000000E-01  8.50000000E-01
  7.20000000E-01  7.20000000E-01  8.50000000E-01  7.20000000E-01  7.20000000E-01
  8.50000000E-01  7.20000000E-01  7.20000000E-01  8.50000000E-01  7.20000000E-01
  7.20000000E-01  8.50000000E-01  7.20000000E-01  8.50000000E-01  8.50000000E-01
  8.50000000E-01  7.20000000E-01  7.20000000E-01  7.20000000E-01  7.20000000E-01
  7.20000000E-01  8.50000000E-01  7.20000000E-01  7.20000000E-01  7.20000000E-01
  7.20000000E-01  7.20000000E-01  8.50000000E-01  8.50000000E-01  7.20000000E-01
  8.50000000E-01  7.20000000E-01  7.20000000E-01  8.50000000E-01  8.50000000E-01
  8.50000000E-01  7.20000000E-01  7.20000000E-01  8.50000000E-01  7.20000000E-01
  7.20000000E-01  8.50000000E-01  7.20000000E-01  7.20000000E-01  8.50000000E-01
  7.20000000E-01  7.20000000E-01  8.50000000E-01  7.20000000E-01  8.50000000E-01
  8.50000000E-01  8.50000000E-01  7.20000000E-01  7.20000000E-01  7.20000000E-01
  7.20000000E-01  7.20000000E-01  8.50000000E-01  7.20000000E-01  7.20000000E-01
  7.20000000E-01  7.20000000E-01  7.20000000E-01  8.50000000E-01  8.50000000E-01
  7.20000000E-01  8.50000000E-01  7.20000000E-01  7.20000000E-01  8.50000000E-01
  8.50000000E-01  8.50000000E-01  7.20000000E-01  7.20000000E-01  8.50000000E-01
  7.20000000E-01  7.20000000E-01  8.50000000E-01  7.20000000E-01  7.20000000E-01
  8.50000000E-01  7.20000000E-01  7.20000000E-01  8.50000000E-01  7.20000000E-01
  8.50000000E-01  8.50000000E-01  8.50000000E-01  7.20000000E-01  7.20000000E-01
  7.20000000E-01  7.20000000E-01  7.20000000E-01  8.50000000E-01  7.20000000E-01
  7.20000000E-01  7.20000000E-01  7.20000000E-01  7.20000000E-01  8.50000000E-01
  8.50000000E-01  7.20000000E-01  8.50000000E-01  7.20000000E-01  7.20000000E-01
  8.50000000E-01  8.50000000E-01  8.50000000E-01  7.20000000E-01  7.20000000E-01
  8.50000000E-01  7.20000000E-01  7.20000000E-01  8.50000000E-01  7.20000000E-01
  7.20000000E-01  8.50000000E-01  7.20000000E-01  7.20000000E-01  8.50000000E-01
  7.20000000E-01  8.50000000E-01  8.50000000E-01  8.50000000E-01  7.20000000E-01
  7.20000000E-01  7.20000000E-01  7.20000000E-01  7.20000000E-01  8.50000000E-01
  7.20000000E-01  7.20000000E-01  7.20000000E-01  7.20000000E-01  7.20000000E-01
  8.50000000E-01  8.50000000E-01  7.20000000E-01  8.50000000E-01  7.20000000E-01
  7.20000000E-01  8.50000000E-01  8.50000000E-01  8.50000000E-01  7.20000000E-01
  7.20000000E-01  8.50000000E-01  7.20000000E-01  7.20000000E-01  8.50000000E-01
  7.20000000E-01  7.20000000E-01  8.50000000E-01  7.20000000E-01  7.20000000E-01
  8.50000000E-01  7.20000000E-01  8.50000000E-01  8.50000000E-01  8.50000000E-01
  7.20000000E-01  7.20000000E-01  7.20000000E-01  7.20000000E-01  7.20000000E-01
  8.50000000E-01  7.20000000E-01  7.20000000E-01  7.20000000E-01  7.20000000E-01
  7.20000000E-01  8.50000000E-01  8.50000000E-01  7.20000000E-01  8.50000000E-01
  7.20000000E-01  7.20000000E-01  8.50000000E-01  8.50000000E-01  8.50000000E-01
  7.20000000E-01  7.20000000E-01  8.50000000E-01  7.20000000E-01  7.20000000E-01
  8.50000000E-01  7.20000000E-01  7.20000000E-01  8.50000000E-01  7.20000000E-01
  7.20000000E-01  8.50000000E-01  7.20000000E-01  8.50000000E-01  8.50000000E-01
  8.50000000E-01  7.20000000E-01  7.20000000E-01  7.20000000E-01  7.20000000E-01
  7.20000000E-01  8.50000000E-01  7.20000000E-01  7.20000000E-01  7.20000000E-01
  7.20000000E-01  7.20000000E-01  8.50000000E-01  8.50000000E-01  7.20000000E-01
  8.50000000E-01  7.20000000E-01  7.20000000E-01  8.50000000E-01  8.50000000E-01
  8.50000000E-01  7.20000000E-01  7.20000000E-01  8.50000000E-01  7.20000000E-01
  7.20000000E-01  8.50000000E-01  7.20000000E-01  7.20000000E-01  8.50000000E-01
  7.20000000E-01  7.20000000E-01  8.50000000E-01  7.20000000E-01  8.50000000E-01
  8.50000000E-01  8.50000000E-01  7.20000000E-01  7.20000000E-01  7.20000000E-01
  7.20000000E-01  7.20000000E-01  8.50000000E-01  7.20000000E-01  7.20000000E-01
  7.20000000E-01  7.20000000E-01  7.20000000E-01  8.50000000E-01  8.50000000E-01
  7.20000000E-01  8.50000000E-01  7.20000000E-01  7.20000000E-01  8.50000000E-01
  8.50000000E-01  8.50000000E-01  7.20000000E-01  7.20000000E-01  8.50000000E-01
  7.20000000E-01  7.20000000E-01  8.50000000E-01  7.20000000E-01  7.20000000E-01
  8.50000000E-01  7.20000000E-01  7.20000000E-01  8.50000000E-01  7.20000000E-01
  8.50000000E-01  8.50000000E-01  8.50000000E-01  7.20000000E-01  7.20000000E-01
  7.20000000E-01  7.20000000E-01  7.20000000E-01  8.50000000E-01  7.20000000E-01
  7.20000000E-01  7.20000000E-01  7.20000000E-01  7.20000000E-01  8.50000000E-01
  8.50000000E-01  7.20000000E-01  8.50000000E-01  7.20000000E-01  7.20000000E-01
  8.50000000E-01  8.50000000E-01  8.50000000E-01  7.20000000E-01  7.20000000E-01
  8.50000000E-01  7.20000000E-01  7.20000000E-01  8.50000000E-01  7.20000000E-01
  7.20000000E-01  8.50000000E-01  7.20000000E-01  7.20000000E-01  8.50000000E-01
  7.20000000E-01  8.50000000E-01  8.50000000E-01  8.50000000E-01  7.20000000E-01
  7.20000000E-01  7.20000000E-01  7.20000000E-01  7.20000000E-01  8.50000000E-01
  7.20000000E-01  7.20000000E-01  7.20000000E-01  7.20000000E-01  7.20000000E-01
  8.50000000E-01  8.50000000E-01  7.20000000E-01  8.50000000E-01  7.20000000E-01
  7.20000000E-01  8.50000000E-01  8.50000000E-01  8.50000000E-01  7.20000000E-01
  7.20000000E-01  8.50000000E-01  7.20000000E-01  7.20000000E-01  8.50000000E-01
  7.20000000E-01  7.20000000E-01  8.50000000E-01  7.20000000E-01  7.20000000E-01
  8.50000000E-01  7.20000000E-01  8.50000000E-01  8.50000000E-01  8.50000000E-01
  7.20000000E-01  7.20000000E-01  7.20000000E-01  7.20000000E-01  7.20000000E-01
  8.50000000E-01  7.20000000E-01  7.20000000E-01  7.20000000E-01  7.20000000E-01
  7.20000000E-01  8.50000000E-01  8.50000000E-01  7.20000000E-01  8.50000000E-01
  7.20000000E-01  7.20000000E-01  8.50000000E-01  8.50000000E-01  8.50000000E-01
  7.20000000E-01  7.20000000E-01  8.50000000E-01  7.20000000E-01  7.20000000E-01
  8.50000000E-01  7.20000000E-01  7.20000000E-01  8.50000000E-01  7.20000000E-01
  7.20000000E-01  8.50000000E-01  7.20000000E-01  8.50000000E-01  8.50000000E-01
  8.50000000E-01  7.20000000E-01  7.20000000E-01  7.20000000E-01  7.20000000E-01
  7.20000000E-01  8.50000000E-01  7.20000000E-01  7.20000000E-01  7.20000000E-01
  7.20000000E-01  7.20000000E-01  8.50000000E-01  8.50000000E-01  7.20000000E-01
  8.50000000E-01  7.20000000E-01  7.20000000E-01  8.50000000E-01  8.50000000E-01
  8.50000000E-01  7.20000000E-01  7.20000000E-01  8.50000000E-01  7.20000000E-01
  7.20000000E-01  8.50000000E-01  7.20000000E-01  7.20000000E-01  8.50000000E-01
  7.20000000E-01  7.20000000E-01  8.50000000E-01  7.20000000E-01  8.50000000E-01
  8.50000000E-01  8.50000000E-01  7.20000000E-01  7.20000000E-01  7.20000000E-01
  7.20000000E-01  7.20000000E-01  8.50000000E-01  7.20000000E-01  7.20000000E-01
  7.20000000E-01  7.20000000E-01  7.20000000E-01  8.50000000E-01  8.50000000E-01
  7.20000000E-01  8.50000000E-01  7.20000000E-01  7.20000000E-01  8.50000000E-01
  8.50000000E-01  8.50000000E-01  7.20000000E-01  7.20000000E-01  8.50000000E-01
  7.20000000E-01  7.20000000E-01  8.50000000E-01  7.20000000E-01  7.20000000E-01
  8.50000000E-01  7.20000000E-01  7.20000000E-01  8.50000000E-01  7.20000000E-01
  8.50000000E-01  8.50000000E-01  8.50000000E-01  7.20000000E-01  7.20000000E-01
  7.20000000E-01  7.20000000E-01  7.20000000E-01  8.50000000E-01  7.20000000E-01
  7.20000000E-01  7.20000000E-01  7.20000000E-01  7.20000000E-01  8.50000000E-01
  8.50000000E-01  7.20000000E-01  8.50000000E-01  7.20000000E-01  7.20000000E-01
  8.50000000E-01  8.50000000E-01  8.50000000E-01  7.20000000E-01  7.20000000E-01
  8.50000000E-01  7.20000000E-01  7.20000000E-01  8.50000000E-01  7.20000000E-01
  7.20000000E-01  8.50000000E-01  7.20000000E-01  7.20000000E-01  8.50000000E-01
  7.20000000E-01  8.50000000E-01  8.50000000E-01  8.50000000E-01  7.20000000E-01
  7.20000000E-01  7.20000000E-01  7.20000000E-01  7.20000000E-01  8.50000000E-01
  7.20000000E-01  7.20000000E-01  7.20000000E-01  7.20000000E-01  7.20000000E-01
  8.50000000E-01  8.50000000E-01  7.20000000E-01  8.50000000E-01  7.20000000E-01
  7.20000000E-01  8.50000000E-01  8.50000000E-01  8.50000000E-01  7.20000000E-01
  7.20000000E-01  8.50000000E-01  7.20000000E-01  7.20000000E-01  8.50000000E-01
  7.20000000E-01  7.20000000E-01  8.50000000E-01  7.20000000E-01  7.20000000E-01
  8.50000000E-01  7.20000000E-01  8.50000000E-01  8.50000000E-01  8.50000000E-01
  7.20000000E-01  7.20000000E-01  7.20000000E-01  7.20000000E-01  7.20000000E-01
  8.50000000E-01  7.20000000E-01  7.20000000E-01  7.20000000E-01  7.20000000E-01
  7.20000000E-01  8.50000000E-01  8.50000000E-01  7.20000000E-01  8.50000000E-01
  7.20000000E-01  7.20000000E-01  8.50000000E-01  8.50000000E-01  8.50000000E-01
  7.20000000E-01  7.20000000E-01  8.50000000E-01  7.20000000E-01  7.20000000E-01
  8.50000000E-01  7.20000000E-01  7.20000000E-01  8.50000000E-01  7.20000000E-01
  7.20000000E-01  8.50000000E-01  7.20000000E-01  8.50000000E-01  8.50000000E-01
  8.50000000E-01  7.20000000E-01  7.20000000E-01  7.20000000E-01  7.20000000E-01
  7.20000000E-01  8.50000000E-01  7.20000000E-01  7.20000000E-01  7.20000000E-01
  7.20000000E-01  7.20000000E-01  8.50000000E-01  8.50000000E-01  7.20000000E-01
  8.50000000E-01  7.20000000E-01  7.20000000E-01  8.50000000E-01  8.50000000E-01
  8.50000000E-01  7.20000000E-01  7.20000000E-01  8.50000000E-01  7.20000000E-01
  7.20000000E-01  8.50000000E-01  7.20000000E-01  7.20000000E-01  8.50000000E-01
  7.20000000E-01  7.20000000E-01  8.50000000E-01  7.20000000E-01  8.50000000E-01
  8.50000000E-01  8.50000000E-01  7.20000000E-01  7.20000000E-01  7.20000000E-01
  7.20000000E-01  7.20000000E-01  8.50000000E-01  7.20000000E-01  7.20000000E-01
  7.20000000E-01  7.20000000E-01  7.20000000E-01  8.50000000E-01  8.50000000E-01
  7.20000000E-01  8.50000000E-01  7.20000000E-01  7.20000000E-01  8.50000000E-01
  8.50000000E-01  8.50000000E-01  7.20000000E-01  7.20000000E-01  8.50000000E-01
  7.20000000E-01  7.20000000E-01  8.50000000E-01  7.20000000E-01  7.20000000E-01
  8.50000000E-01  7.20000000E-01  7.20000000E-01  8.50000000E-01  7.20000000E-01
  8.50000000E-01  8.50000000E-01  8.50000000E-01  7.20000000E-01  7.20000000E-01
  7.20000000E-01  7.20000000E-01  7.20000000E-01  8.50000000E-01  7.20000000E-01
  7.20000000E-01  7.20000000E-01  7.20000000E-01  7.20000000E-01  8.50000000E-01
  8.50000000E-01  7.20000000E-01  8.50000000E-01  7.20000000E-01  7.20000000E-01
  8.50000000E-01  8.50000000E-01  8.50000000E-01  7.20000000E-01  7.20000000E-01
  8.50000000E-01  7.20000000E-01  7.20000000E-01  8.50000000E-01  7.20000000E-01
  7.20000000E-01  8.50000000E-01  7.20000000E-01  7.20000000E-01  8.50000000E-01
  7.20000000E-01  8.50000000E-01  8.50000000E-01  8.50000000E-01  7.20000000E-01
  7.20000000E-01  7.20000000E-01  7.20000000E-01  7.20000000E-01  8.50000000E-01
  7.20000000E-01  7.20000000E-01  7.20000000E-01  7.20000000E-01  7.20000000E-01
  8.50000000E-01  8.50000000E-01  7.20000000E-01  8.50000000E-01  7.20000000E-01
  7.20000000E-01  8.50000000E-01  8.50000000E-01  8.50000000E-01  7.20000000E-01
  7.20000000E-01  8.50000000E-01  7.20000000E-01  7.20000000E-01  8.50000000E-01
  7.20000000E-01  7.20000000E-01  8.50000000E-01  7.20000000E-01  7.20000000E-01
  8.50000000E-01  7.20000000E-01  8.50000000E-01  8.50000000E-01  8.50000000E-01
  7.20000000E-01  7.20000000E-01  7.20000000E-01  7.20000000E-01  7.20000000E-01
  8.50000000E-01  7.20000000E-01  7.20000000E-01  7.20000000E-01  7.20000000E-01
  7.20000000E-01  8.50000000E-01  8.50000000E-01  7.20000000E-01  8.50000000E-01
  7.20000000E-01  7.20000000E-01  8.50000000E-01  8.50000000E-01  8.50000000E-01
  7.20000000E-01  7.20000000E-01  8.50000000E-01  7.20000000E-01  7.20000000E-01
  8.50000000E-01  7.20000000E-01  7.20000000E-01  8.50000000E-01  7.20000000E-01
  7.20000000E-01  8.50000000E-01  7.20000000E-01  8.50000000E-01  8.50000000E-01
  8.50000000E-01  7.20000000E-01  7.20000000E-01  7.20000000E-01  7.20000000E-01
  7.20000000E-01  8.50000000E-01  7.20000000E-01  7.20000000E-01  7.20000000E-01
  7.20000000E-01  7.20000000E-01  8.50000000E-01  8.50000000E-01  7.20000000E-01
  8.50000000E-01  7.20000000E-01  7.20000000E-01  8.50000000E-01  8.50000000E-01
  8.50000000E-01  7.20000000E-01  7.20000000E-01  8.50000000E-01  7.20000000E-01
  7.20000000E-01  8.50000000E-01  7.20000000E-01  7.20000000E-01  8.50000000E-01
  7.20000000E-01  7.20000000E-01  8.50000000E-01  7.20000000E-01  8.50000000E-01
  8.50000000E-01  8.50000000E-01  7.20000000E-01  7.20000000E-01  7.20000000E-01
  7.20000000E-01  7.20000000E-01  8.50000000E-01  7.20000000E-01  7.20000000E-01
  7.20000000E-01  7.20000000E-01  7.20000000E-01  8.50000000E-01  8.50000000E-01
  7.20000000E-01  8.50000000E-01  7.20000000E-01  7.20000000E-01  8.50000000E-01
  8.50000000E-01  8.50000000E-01  7.20000000E-01  7.20000000E-01  8.50000000E-01
  7.20000000E-01  7.20000000E-01  8.50000000E-01  7.20000000E-01  7.20000000E-01
  8.50000000E-01  7.20000000E-01  7.20000000E-01  8.50000000E-01  7.20000000E-01
  8.50000000E-01  8.50000000E-01  8.50000000E-01  7.20000000E-01  7.20000000E-01
  7.20000000E-01  7.20000000E-01  7.20000000E-01  8.50000000E-01  7.20000000E-01
  7.20000000E-01  7.20000000E-01  7.20000000E-01  7.20000000E-01  8.50000000E-01
  8.50000000E-01  7.20000000E-01  8.50000000E-01  7.20000000E-01  7.20000000E-01
  8.50000000E-01  8.50000000E-01  8.50000000E-01  7.20000000E-01  7.20000000E-01
  8.50000000E-01  7.20000000E-01  7.20000000E-01  8.50000000E-01  7.20000000E-01
  7.20000000E-01  8.50000000E-01  7.20000000E-01  7.20000000E-01  8.50000000E-01
  7.20000000E-01  8.50000000E-01  8.50000000E-01  8.50000000E-01  7.20000000E-01
  7.20000000E-01  7.20000000E-01  7.20000000E-01  7.20000000E-01  8.50000000E-01
  7.20000000E-01  7.20000000E-01  7.20000000E-01  7.20000000E-01  7.20000000E-01
  8.50000000E-01  8.50000000E-01  7.20000000E-01  8.50000000E-01  7.20000000E-01
  7.20000000E-01  8.50000000E-01  8.50000000E-01  8.50000000E-01  7.20000000E-01
  7.20000000E-01  8.50000000E-01  7.20000000E-01  7.20000000E-01  8.50000000E-01
  7.20000000E-01  7.20000000E-01  8.50000000E-01  7.20000000E-01  7.20000000E-01
  8.50000000E-01  7.20000000E-01  8.50000000E-01  8.50000000E-01  8.50000000E-01
  7.20000000E-01  7.20000000E-01  7.20000000E-01  7.20000000E-01  7.20000000E-01
  8.50000000E-01  7.20000000E-01  7.20000000E-01  7.20000000E-01  7.20000000E-01
  7.20000000E-01  8.50000000E-01  8.50000000E-01  7.20000000E-01  8.50000000E-01
  7.20000000E-01  7.20000000E-01  8.50000000E-01  8.50000000E-01  8.50000000E-01
  7.20000000E-01  7.20000000E-01  8.50000000E-01  7.20000000E-01  7.20000000E-01
  8.50000000E-01  7.20000000E-01  7.20000000E-01  8.50000000E-01  7.20000000E-01
  7.20000000E-01  8.50000000E-01  7.20000000E-01  8.50000000E-01  8.50000000E-01
  8.50000000E-01  7.20000000E-01  7.20000000E-01  7.20000000E-01  7.20000000E-01
  7.20000000E-01  8.50000000E-01  7.20000000E-01  7.20000000E-01  7.20000000E-01
  7.20000000E-01  7.20000000E-01  8.50000000E-01  8.50000000E-01  7.20000000E-01
  8.50000000E-01  7.20000000E-01  7.20000000E-01  8.50000000E-01  8.50000000E-01
  8.50000000E-01  7.20000000E-01  7.20000000E-01  8.50000000E-01  7.20000000E-01
  7.20000000E-01  8.50000000E-01  7.20000000E-01  7.20000000E-01  8.50000000E-01
  7.20000000E-01  7.20000000E-01  8.50000000E-01  7.20000000E-01  8.50000000E-01
  8.50000000E-01  8.50000000E-01  7.20000000E-01  7.20000000E-01  7.20000000E-01
  7.20000000E-01  7.20000000E-01  8.50000000E-01  7.20000000E-01  7.20000000E-01
  7.20000000E-01  7.20000000E-01  7.20000000E-01  8.50000000E-01  8.50000000E-01
  7.20000000E-01  8.50000000E-01  7.20000000E-01  7.20000000E-01  8.50000000E-01
  8.50000000E-01  8.50000000E-01  7.20000000E-01  7.20000000E-01  8.50000000E-01
  7.20000000E-01  7.20000000E-01  8.50000000E-01  7.20000000E-01  7.20000000E-01
  8.50000000E-01  7.20000000E-01  7.20000000E-01  8.50000000E-01  7.20000000E-01
  8.50000000E-01  8.50000000E-01  8.50000000E-01  7.20000000E-01  7.20000000E-01
  7.20000000E-01  7.20000000E-01  7.20000000E-01  8.50000000E-01  7.20000000E-01
  7.20000000E-01  7.20000000E-01  7.20000000E-01  7.20000000E-01  8.50000000E-01
  8.50000000E-01  7.20000000E-01  8.50000000E-01  7.20000000E-01  7.20000000E-01
  8.50000000E-01  8.50000000E-01  8.50000000E-01  7.20000000E-01  7.20000000E-01
  8.50000000E-01  7.20000000E-01  7.20000000E-01  8.50000000E-01  7.20000000E-01
  7.20000000E-01  8.50000000E-01  7.20000000E-01  7.20000000E-01  8.50000000E-01
  7.20000000E-01  8.50000000E-01  8.50000000E-01  8.50000000E-01  7.20000000E-01
  7.20000000E-01  7.20000000E-01  7.20000000E-01  7.20000000E-01  8.50000000E-01
  7.20000000E-01  7.20000000E-01  7.20000000E-01  7.20000000E-01  7.20000000E-01
  8.50000000E-01  8.50000000E-01  7.20000000E-01  8.50000000E-01  7.20000000E-01
  7.20000000E-01  8.50000000E-01  8.50000000E-01  8.50000000E-01  7.20000000E-01
  7.20000000E-01  8.50000000E-01  7.20000000E-01  7.20000000E-01  8.50000000E-01
  7.20000000E-01  7.20000000E-01  8.50000000E-01  7.20000000E-01  7.20000000E-01
  8.50000000E-01  7.20000000E-01  8.50000000E-01  8.50000000E-01  8.50000000E-01
  7.20000000E-01  7.20000000E-01  7.20000000E-01  7.20000000E-01  7.20000000E-01
  8.50000000E-01  7.20000000E-01  7.20000000E-01  7.20000000E-01  7.20000000E-01
  7.20000000E-01  8.50000000E-01  8.50000000E-01  7.20000000E-01  8.50000000E-01
  7.20000000E-01  7.20000000E-01  8.50000000E-01  8.50000000E-01  8.50000000E-01
  7.20000000E-01  7.20000000E-01  8.50000000E-01  7.20000000E-01  7.20000000E-01
  8.50000000E-01  7.20000000E-01  7.20000000E-01  8.50000000E-01  7.20000000E-01
  7.20000000E-01  8.50000000E-01  7.20000000E-01  8.50000000E-01  8.50000000E-01
  8.50000000E-01  7.20000000E-01  7.20000000E-01  7.20000000E-01  7.20000000E-01
  7.20000000E-01  8.50000000E-01  7.20000000E-01  7.20000000E-01  7.20000000E-01
  7.20000000E-01  7.20000000E-01  8.50000000E-01  8.50000000E-01  7.20000000E-01
  8.50000000E-01  7.20000000E-01  7.20000000E-01  8.50000000E-01  8.50000000E-01
  8.50000000E-01  7.20000000E-01  7.20000000E-01  8.50000000E-01  7.20000000E-01
  7.20000000E-01  8.50000000E-01  7.20000000E-01  7.20000000E-01  8.50000000E-01
  7.20000000E-01  7.20000000E-01  8.50000000E-01  7.20000000E-01  8.50000000E-01
  8.50000000E-01  8.50000000E-01  7.20000000E-01  7.20000000E-01  7.20000000E-01
  7.20000000E-01  7.20000000E-01  8.50000000E-01  7.20000000E-01  7.20000000E-01
  7.20000000E-01  7.20000000E-01  7.20000000E-01  8.50000000E-01  8.50000000E-01
  7.20000000E-01  8.50000000E-01  7.20000000E-01  7.20000000E-01  8.50000000E-01
  8.50000000E-01  8.50000000E-01  7.20000000E-01  7.20000000E-01  8.50000000E-01
  7.20000000E-01  7.20000000E-01  8.50000000E-01  7.20000000E-01  7.20000000E-01
  8.50000000E-01  7.20000000E-01  7.20000000E-01  8.50000000E-01  7.20000000E-01
  8.50000000E-01  8.50000000E-01  8.50000000E-01  7.20000000E-01  7.20000000E-01
  7.20000000E-01  7.20000000E-01  7.20000000E-01  8.50000000E-01  7.20000000E-01
  7.20000000E-01  7.20000000E-01  7.20000000E-01  7.20000000E-01  8.50000000E-01
  8.50000000E-01  7.20000000E-01  8.50000000E-01  7.20000000E-01  7.20000000E-01
  8.50000000E-01  8.50000000E-01  8.50000000E-01  7.20000000E-01  7.20000000E-01
  8.50000000E-01  7.20000000E-01  7.20000000E-01  8.50000000E-01  7.20000000E-01
  7.20000000E-01  8.50000000E-01  7.20000000E-01  7.20000000E-01  8.50000000E-01
  7.20000000E-01  8.50000000E-01  8.50000000E-01  8.50000000E-01  7.20000000E-01
  7.20000000E-01  7.20000000E-01  7.20000000E-01  7.20000000E-01  8.50000000E-01
  7.20000000E-01  7.20000000E-01  7.20000000E-01  7.20000000E-01  7.20000000E-01
  8.50000000E-01  8.50000000E-01  7.20000000E-01  8.50000000E-01  7.20000000E-01
  7.20000000E-01  8.50000000E-01  8.50000000E-01  8.50000000E-01  7.20000000E-01
  7.20000000E-01  8.50000000E-01  7.20000000E-01  7.20000000E-01  8.50000000E-01
  7.20000000E-01  7.20000000E-01  8.50000000E-01  7.20000000E-01  7.20000000E-01
  8.50000000E-01  7.20000000E-01  8.50000000E-01  8.50000000E-01  8.50000000E-01
  7.20000000E-01  7.20000000E-01  7.20000000E-01  7.20000000E-01  7.20000000E-01
  8.50000000E-01  7.20000000E-01  7.20000000E-01  7.20000000E-01  7.20000000E-01
  7.20000000E-01  8.50000000E-01  8.50000000E-01  7.20000000E-01  8.50000000E-01
  7.20000000E-01  7.20000000E-01  8.50000000E-01  8.50000000E-01  8.50000000E-01
  7.20000000E-01  7.20000000E-01  8.50000000E-01  7.20000000E-01  7.20000000E-01
  8.50000000E-01  7.20000000E-01  7.20000000E-01  8.50000000E-01  7.20000000E-01
  7.20000000E-01  8.50000000E-01  7.20000000E-01  8.50000000E-01  8.50000000E-01
  8.50000000E-01  7.20000000E-01  7.20000000E-01  7.20000000E-01  7.20000000E-01
  7.20000000E-01  8.50000000E-01  7.20000000E-01  7.20000000E-01  7.20000000E-01
  7.20000000E-01  7.20000000E-01  8.50000000E-01  8.50000000E-01  7.20000000E-01
  8.50000000E-01  7.20000000E-01  7.20000000E-01  8.50000000E-01  8.50000000E-01
  8.50000000E-01  7.20000000E-01  7.20000000E-01  8.50000000E-01  7.20000000E-01
  7.20000000E-01  8.50000000E-01  7.20000000E-01  7.20000000E-01  8.50000000E-01
  7.20000000E-01  7.20000000E-01  8.50000000E-01  7.20000000E-01  8.50000000E-01
  8.50000000E-01  8.50000000E-01  7.20000000E-01  7.20000000E-01  7.20000000E-01
  7.20000000E-01  7.20000000E-01  8.50000000E-01  7.20000000E-01  7.20000000E-01
  7.20000000E-01  7.20000000E-01  7.20000000E-01  8.50000000E-01  8.50000000E-01
  7.20000000E-01  8.50000000E-01  7.20000000E-01  7.20000000E-01  8.50000000E-01
  8.50000000E-01  8.50000000E-01  7.20000000E-01  7.20000000E-01  8.50000000E-01
  7.20000000E-01  7.20000000E-01  8.50000000E-01  7.20000000E-01  7.20000000E-01
  8.50000000E-01  7.20000000E-01  7.20000000E-01  8.50000000E-01  7.20000000E-01
  8.50000000E-01  8.50000000E-01  8.50000000E-01  7.20000000E-01  7.20000000E-01
  7.20000000E-01  7.20000000E-01  7.20000000E-01  8.50000000E-01  7.20000000E-01
  7.20000000E-01  7.20000000E-01  7.20000000E-01  7.20000000E-01  8.50000000E-01
  8.50000000E-01  7.20000000E-01  8.50000000E-01  7.20000000E-01  7.20000000E-01
  8.50000000E-01  8.50000000E-01  8.50000000E-01  7.20000000E-01  7.20000000E-01
  8.50000000E-01  7.20000000E-01  7.20000000E-01  8.50000000E-01  7.20000000E-01
  7.20000000E-01  8.50000000E-01  7.20000000E-01  7.20000000E-01  8.50000000E-01
  7.20000000E-01  8.50000000E-01  8.50000000E-01  8.50000000E-01  7.20000000E-01
  7.20000000E-01  7.20000000E-01  7.20000000E-01  7.20000000E-01  8.50000000E-01
  7.20000000E-01  7.20000000E-01  7.20000000E-01  7.20000000E-01  7.20000000E-01
  8.50000000E-01  8.50000000E-01  7.20000000E-01  8.50000000E-01  7.20000000E-01
  7.20000000E-01  8.50000000E-01  8.50000000E-01  8.50000000E-01  7.20000000E-01
  7.20000000E-01  8.50000000E-01  7.20000000E-01  7.20000000E-01  8.50000000E-01
  7.20000000E-01  7.20000000E-01  8.50000000E-01  7.20000000E-01  7.20000000E-01
  8.50000000E-01  7.20000000E-01  8.50000000E-01  8.50000000E-01  8.50000000E-01
  7.20000000E-01  7.20000000E-01  7.20000000E-01  7.20000000E-01  7.20000000E-01
  8.50000000E-01  7.20000000E-01  7.20000000E-01  7.20000000E-01  7.20000000E-01
  7.20000000E-01  8.50000000E-01  8.50000000E-01  7.20000000E-01  8.50000000E-01
  7.20000000E-01  7.20000000E-01  8.50000000E-01  8.50000000E-01  8.50000000E-01
  7.20000000E-01  7.20000000E-01  8.50000000E-01  7.20000000E-01  7.20000000E-01
  8.50000000E-01  7.20000000E-01  7.20000000E-01  8.50000000E-01  7.20000000E-01
  7.20000000E-01  8.50000000E-01  7.20000000E-01  8.50000000E-01  8.50000000E-01
  8.50000000E-01  7.20000000E-01  7.20000000E-01  7.20000000E-01  7.20000000E-01
  7.20000000E-01  8.50000000E-01  7.20000000E-01  7.20000000E-01  7.20000000E-01
  7.20000000E-01  7.20000000E-01  8.50000000E-01  8.50000000E-01  7.20000000E-01
  8.50000000E-01  7.20000000E-01  7.20000000E-01  8.50000000E-01  8.50000000E-01
  8.50000000E-01  7.20000000E-01  7.20000000E-01  8.50000000E-01  7.20000000E-01
  7.20000000E-01  8.50000000E-01  7.20000000E-01  7.20000000E-01  8.50000000E-01
  7.20000000E-01  7.20000000E-01  8.50000000E-01  7.20000000E-01  8.50000000E-01
  8.50000000E-01  8.50000000E-01  7.20000000E-01  7.20000000E-01  7.20000000E-01
  7.20000000E-01  7.20000000E-01  8.50000000E-01  7.20000000E-01  7.20000000E-01
  7.20000000E-01  7.20000000E-01  7.20000000E-01  8.50000000E-01  8.50000000E-01
  7.20000000E-01  8.50000000E-01  7.20000000E-01  7.20000000E-01  8.50000000E-01
  8.50000000E-01  8.50000000E-01  7.20000000E-01  7.20000000E-01  8.50000000E-01
  7.20000000E-01  7.20000000E-01  8.50000000E-01  7.20000000E-01  7.20000000E-01
  8.50000000E-01  7.20000000E-01  7.20000000E-01  8.50000000E-01  7.20000000E-01
  8.50000000E-01  8.50000000E-01  8.50000000E-01  7.20000000E-01  7.20000000E-01
  7.20000000E-01  7.20000000E-01  7.20000000E-01  8.50000000E-01  7.20000000E-01
  7.20000000E-01  7.20000000E-01  7.20000000E-01  7.20000000E-01  8.50000000E-01
  8.50000000E-01  7.20000000E-01  8.50000000E-01  7.20000000E-01  7.20000000E-01
  8.50000000E-01  8.50000000E-01  8.50000000E-01  7.20000000E-01  7.20000000E-01
  8.50000000E-01  7.20000000E-01  7.20000000E-01  8.50000000E-01  7.20000000E-01
  7.20000000E-01  8.50000000E-01  7.20000000E-01  7.20000000E-01  8.50000000E-01
  7.20000000E-01  8.50000000E-01  8.50000000E-01  8.50000000E-01  7.20000000E-01
  7.20000000E-01  7.20000000E-01  7.20000000E-01  7.20000000E-01  8.50000000E-01
  7.20000000E-01  7.20000000E-01  7.20000000E-01  7.20000000E-01  7.20000000E-01
  8.50000000E-01  8.50000000E-01  7.20000000E-01  8.50000000E-01  7.20000000E-01
  7.20000000E-01  8.50000000E-01  8.50000000E-01  8.50000000E-01  7.20000000E-01
  7.20000000E-01  8.50000000E-01  7.20000000E-01  7.20000000E-01  8.50000000E-01
  7.20000000E-01  7.20000000E-01  8.50000000E-01  7.20000000E-01  7.20000000E-01
  8.50000000E-01  7.20000000E-01  8.50000000E-01  8.50000000E-01  8.50000000E-01
  7.20000000E-01  7.20000000E-01  7.20000000E-01  7.20000000E-01  7.20000000E-01
  8.50000000E-01  7.20000000E-01  7.20000000E-01  7.20000000E-01  7.20000000E-01
  7.20000000E-01  8.50000000E-01  8.50000000E-01  7.20000000E-01  8.50000000E-01
  7.20000000E-01  7.20000000E-01  8.50000000E-01  8.50000000E-01  8.50000000E-01
  7.20000000E-01  7.20000000E-01  8.50000000E-01  7.20000000E-01  7.20000000E-01
  8.50000000E-01  7.20000000E-01  7.20000000E-01  8.50000000E-01  7.20000000E-01
  7.20000000E-01  8.50000000E-01  7.20000000E-01  8.50000000E-01  8.50000000E-01
  8.50000000E-01  7.20000000E-01  7.20000000E-01  7.20000000E-01  7.20000000E-01
  7.20000000E-01  8.50000000E-01  7.20000000E-01  7.20000000E-01  7.20000000E-01
  7.20000000E-01  7.20000000E-01  8.50000000E-01  8.50000000E-01  7.20000000E-01
  8.50000000E-01  7.20000000E-01  7.20000000E-01  8.50000000E-01  8.50000000E-01
  8.50000000E-01  7.20000000E-01  7.20000000E-01  8.50000000E-01  7.20000000E-01
  7.20000000E-01  8.50000000E-01  7.20000000E-01  7.20000000E-01  8.50000000E-01
  7.20000000E-01  7.20000000E-01  8.50000000E-01  7.20000000E-01  8.50000000E-01
  8.50000000E-01  8.50000000E-01  7.20000000E-01  7.20000000E-01  7.20000000E-01
  7.20000000E-01  7.20000000E-01  8.50000000E-01  7.20000000E-01  7.20000000E-01
  7.20000000E-01  7.20000000E-01  7.20000000E-01  8.50000000E-01  8.50000000E-01
  7.20000000E-01  8.50000000E-01  7.20000000E-01  7.20000000E-01  8.50000000E-01
  8.50000000E-01  8.50000000E-01  7.20000000E-01  7.20000000E-01  8.50000000E-01
  7.20000000E-01  7.20000000E-01  8.50000000E-01  7.20000000E-01  7.20000000E-01
  8.50000000E-01  7.20000000E-01  7.20000000E-01  8.50000000E-01  7.20000000E-01
  8.50000000E-01  8.50000000E-01  8.50000000E-01  7.20000000E-01  7.20000000E-01
  7.20000000E-01  7.20000000E-01  7.20000000E-01  8.50000000E-01  7.20000000E-01
  7.20000000E-01  7.20000000E-01  7.20000000E-01  7.20000000E-01  8.50000000E-01
  8.50000000E-01  7.20000000E-01  8.50000000E-01  7.20000000E-01  7.20000000E-01
  8.50000000E-01  8.50000000E-01  8.50000000E-01  7.20000000E-01  7.20000000E-01
  8.50000000E-01  7.20000000E-01  7.20000000E-01  8.50000000E-01  7.20000000E-01
  7.20000000E-01  8.50000000E-01  7.20000000E-01  7.20000000E-01  8.50000000E-01
  7.20000000E-01  8.50000000E-01  8.50000000E-01  8.50000000E-01  7.20000000E-01
  7.20000000E-01  7.20000000E-01  7.20000000E-01  7.20000000E-01  8.50000000E-01
  7.20000000E-01  7.20000000E-01  7.20000000E-01  7.20000000E-01  7.20000000E-01
  8.50000000E-01  8.50000000E-01  7.20000000E-01  8.50000000E-01  7.20000000E-01
  7.20000000E-01  8.50000000E-01  8.50000000E-01  8.50000000E-01  7.20000000E-01
  7.20000000E-01  8.50000000E-01  7.20000000E-01  7.20000000E-01  8.50000000E-01
  7.20000000E-01  7.20000000E-01  8.50000000E-01  7.20000000E-01  7.20000000E-01
  8.50000000E-01  7.20000000E-01  8.50000000E-01  8.50000000E-01  8.50000000E-01
  7.20000000E-01  7.20000000E-01  7.20000000E-01  7.20000000E-01  7.20000000E-01
  8.50000000E-01  7.20000000E-01  7.20000000E-01  7.20000000E-01  7.20000000E-01
  7.20000000E-01  8.50000000E-01  8.50000000E-01  7.20000000E-01  8.50000000E-01
  7.20000000E-01  7.20000000E-01  8.50000000E-01  8.50000000E-01  8.50000000E-01
  7.20000000E-01  7.20000000E-01  8.50000000E-01  7.20000000E-01  7.20000000E-01
  8.50000000E-01  7.20000000E-01  7.20000000E-01  8.50000000E-01  7.20000000E-01
  7.20000000E-01  8.50000000E-01  7.20000000E-01  8.50000000E-01  8.50000000E-01
  8.50000000E-01  7.20000000E-01  7.20000000E-01  7.20000000E-01  7.20000000E-01
  7.20000000E-01  8.50000000E-01  7.20000000E-01  7.20000000E-01  7.20000000E-01
  7.20000000E-01  7.20000000E-01  8.50000000E-01  8.50000000E-01  7.20000000E-01
  8.50000000E-01  7.20000000E-01  7.20000000E-01  8.50000000E-01  8.50000000E-01
  8.50000000E-01  7.20000000E-01  7.20000000E-01  8.50000000E-01  7.20000000E-01
  7.20000000E-01  8.50000000E-01  7.20000000E-01  7.20000000E-01  8.50000000E-01
  7.20000000E-01  7.20000000E-01  8.50000000E-01  7.20000000E-01  8.50000000E-01
  8.50000000E-01  8.50000000E-01  7.20000000E-01  7.20000000E-01  7.20000000E-01
  7.20000000E-01  7.20000000E-01  8.50000000E-01  7.20000000E-01  7.20000000E-01
  7.20000000E-01  7.20000000E-01  7.20000000E-01  8.50000000E-01  8.50000000E-01
  7.20000000E-01  8.50000000E-01  7.20000000E-01  7.20000000E-01  8.50000000E-01
  8.50000000E-01  8.50000000E-01  7.20000000E-01  7.20000000E-01  8.50000000E-01
  7.20000000E-01  7.20000000E-01  8.50000000E-01  7.20000000E-01  7.20000000E-01
  8.50000000E-01  7.20000000E-01  7.20000000E-01  8.50000000E-01  7.20000000E-01
  8.50000000E-01  8.50000000E-01  8.50000000E-01  7.20000000E-01  7.20000000E-01
  7.20000000E-01  7.20000000E-01  7.20000000E-01  8.50000000E-01  7.20000000E-01
  7.20000000E-01  7.20000000E-01  7.20000000E-01  7.20000000E-01  8.50000000E-01
  8.50000000E-01  7.20000000E-01  8.50000000E-01  7.20000000E-01  7.20000000E-01
  8.50000000E-01  8.50000000E-01  8.50000000E-01  7.20000000E-01  7.20000000E-01
  8.50000000E-01  7.20000000E-01  7.20000000E-01  8.50000000E-01  7.20000000E-01
  7.20000000E-01  8.50000000E-01  7.20000000E-01  7.20000000E-01  8.50000000E-01
  7.20000000E-01  8.50000000E-01  8.50000000E-01  8.50000000E-01  7.20000000E-01
  7.20000000E-01  7.20000000E-01  7.20000000E-01  7.20000000E-01  8.50000000E-01
  7.20000000E-01  7.20000000E-01  7.20000000E-01  7.20000000E-01  7.20000000E-01
  8.50000000E-01  8.50000000E-01  7.20000000E-01  8.50000000E-01  7.20000000E-01
  7.20000000E-01  8.50000000E-01  8.50000000E-01  8.50000000E-01  7.20000000E-01
  7.20000000E-01  8.50000000E-01  7.20000000E-01  7.20000000E-01  8.50000000E-01
  7.20000000E-01  7.20000000E-01  8.50000000E-01  7.20000000E-01  7.20000000E-01
  8.50000000E-01  7.20000000E-01  8.50000000E-01  8.50000000E-01  8.50000000E-01
  7.20000000E-01  7.20000000E-01  7.20000000E-01  7.20000000E-01  7.20000000E-01
  8.50000000E-01  7.20000000E-01  7.20000000E-01  7.20000000E-01  7.20000000E-01
  7.20000000E-01  8.50000000E-01  8.50000000E-01  7.20000000E-01  8.50000000E-01
  7.20000000E-01  7.20000000E-01  8.50000000E-01  8.50000000E-01  8.50000000E-01
  7.20000000E-01  7.20000000E-01  8.50000000E-01  7.20000000E-01  7.20000000E-01
  8.50000000E-01  7.20000000E-01  7.20000000E-01  8.50000000E-01  7.20000000E-01
  7.20000000E-01  8.50000000E-01  7.20000000E-01  8.50000000E-01  8.50000000E-01
  8.50000000E-01  7.20000000E-01  7.20000000E-01  7.20000000E-01  7.20000000E-01
  7.20000000E-01  8.50000000E-01  7.20000000E-01  7.20000000E-01  7.20000000E-01
  7.20000000E-01  7.20000000E-01  8.50000000E-01  8.50000000E-01  7.20000000E-01
  8.50000000E-01  7.20000000E-01  7.20000000E-01  8.50000000E-01  8.50000000E-01
  8.50000000E-01  7.20000000E-01  7.20000000E-01  8.50000000E-01  7.20000000E-01
  7.20000000E-01  8.50000000E-01  7.20000000E-01  7.20000000E-01  8.50000000E-01
  7.20000000E-01  7.20000000E-01  8.50000000E-01  7.20000000E-01  8.50000000E-01
  8.50000000E-01  8.50000000E-01  7.20000000E-01  7.20000000E-01  7.20000000E-01
  7.20000000E-01  7.20000000E-01  8.50000000E-01  7.20000000E-01  7.20000000E-01
  7.20000000E-01  7.20000000E-01  7.20000000E-01  8.50000000E-01  8.50000000E-01
  7.20000000E-01  8.50000000E-01  7.20000000E-01  7.20000000E-01  8.50000000E-01
  8.50000000E-01  8.50000000E-01  7.20000000E-01  7.20000000E-01  8.50000000E-01
  7.20000000E-01  7.20000000E-01  8.50000000E-01  7.20000000E-01  7.20000000E-01
  8.50000000E-01  7.20000000E-01  7.20000000E-01  8.50000000E-01  7.20000000E-01
  8.50000000E-01  8.50000000E-01  8.50000000E-01  7.20000000E-01  7.20000000E-01
  7.20000000E-01  7.20000000E-01  7.20000000E-01  8.50000000E-01  7.20000000E-01
  7.20000000E-01  7.20000000E-01  7.20000000E-01  7.20000000E-01  8.50000000E-01
  8.50000000E-01  7.20000000E-01  8.50000000E-01  7.20000000E-01  7.20000000E-01
  8.50000000E-01  8.50000000E-01  8.50000000E-01  7.20000000E-01  7.20000000E-01
  8.50000000E-01  7.20000000E-01  7.20000000E-01  8.50000000E-01  7.20000000E-01
  7.20000000E-01  8.50000000E-01  7.20000000E-01  7.20000000E-01  8.50000000E-01
  7.20000000E-01  8.50000000E-01  8.50000000E-01  8.50000000E-01  7.20000000E-01
  7.20000000E-01  7.20000000E-01  7.20000000E-01  7.20000000E-01  8.50000000E-01
  7.20000000E-01  7.20000000E-01  7.20000000E-01  7.20000000E-01  7.20000000E-01
  8.50000000E-01  8.50000000E-01  7.20000000E-01  8.50000000E-01  7.20000000E-01
  7.20000000E-01  8.50000000E-01  8.50000000E-01  8.50000000E-01  7.20000000E-01
  7.20000000E-01  8.50000000E-01  7.20000000E-01  7.20000000E-01  8.50000000E-01
  7.20000000E-01  7.20000000E-01  8.50000000E-01  7.20000000E-01  7.20000000E-01
  8.50000000E-01  7.20000000E-01  8.50000000E-01  8.50000000E-01  8.50000000E-01
  7.20000000E-01  7.20000000E-01  7.20000000E-01  7.20000000E-01  7.20000000E-01
  8.50000000E-01  7.20000000E-01  7.20000000E-01  7.20000000E-01  7.20000000E-01
  7.20000000E-01  8.50000000E-01  8.50000000E-01  7.20000000E-01  8.50000000E-01
  7.20000000E-01  7.20000000E-01  8.50000000E-01  8.50000000E-01  8.50000000E-01
  7.20000000E-01  7.20000000E-01  8.50000000E-01  7.20000000E-01  7.20000000E-01
  8.50000000E-01  7.20000000E-01  7.20000000E-01  8.50000000E-01  7.20000000E-01
  7.20000000E-01  8.50000000E-01  7.20000000E-01  8.50000000E-01  8.50000000E-01
  8.50000000E-01  7.20000000E-01  7.20000000E-01  7.20000000E-01  7.20000000E-01
  7.20000000E-01  8.50000000E-01  7.20000000E-01  7.20000000E-01  7.20000000E-01
  7.20000000E-01  7.20000000E-01  8.50000000E-01  8.50000000E-01  7.20000000E-01
  8.50000000E-01  7.20000000E-01  7.20000000E-01  8.50000000E-01  8.50000000E-01
  8.50000000E-01  7.20000000E-01  7.20000000E-01  8.50000000E-01  7.20000000E-01
  7.20000000E-01  8.50000000E-01  7.20000000E-01  7.20000000E-01  8.50000000E-01
  7.20000000E-01  7.20000000E-01  8.50000000E-01  7.20000000E-01  8.50000000E-01
  8.50000000E-01  8.50000000E-01  7.20000000E-01  7.20000000E-01  7.20000000E-01
  7.20000000E-01  7.20000000E-01  8.50000000E-01  7.20000000E-01  7.20000000E-01
  7.20000000E-01  7.20000000E-01  7.20000000E-01  8.50000000E-01  8.50000000E-01
  7.20000000E-01  8.50000000E-01  7.20000000E-01  7.20000000E-01  8.50000000E-01
  8.50000000E-01  8.50000000E-01  7.20000000E-01  7.20000000E-01  8.50000000E-01
  7.20000000E-01  7.20000000E-01  8.50000000E-01  7.20000000E-01  7.20000000E-01
  8.50000000E-01  7.20000000E-01  7.20000000E-01  8.50000000E-01  7.20000000E-01
  8.50000000E-01  8.50000000E-01  8.50000000E-01  7.20000000E-01  7.20000000E-01
  7.20000000E-01  7.20000000E-01  7.20000000E-01  8.50000000E-01  7.20000000E-01
  7.20000000E-01  7.20000000E-01  7.20000000E-01  7.20000000E-01  8.50000000E-01
  8.50000000E-01  7.20000000E-01  8.50000000E-01  7.20000000E-01  7.20000000E-01
  8.50000000E-01  8.50000000E-01  8.50000000E-01  7.20000000E-01  7.20000000E-01
  8.50000000E-01  7.20000000E-01  7.20000000E-01  8.50000000E-01  7.20000000E-01
  7.20000000E-01  8.50000000E-01  7.20000000E-01  7.20000000E-01  8.50000000E-01
  7.20000000E-01  8.50000000E-01  8.50000000E-01  8.50000000E-01  7.20000000E-01
  7.20000000E-01  7.20000000E-01  7.20000000E-01  7.20000000E-01  8.50000000E-01
  7.20000000E-01  7.20000000E-01  7.20000000E-01  7.20000000E-01  7.20000000E-01
  8.50000000E-01  8.50000000E-01  7.20000000E-01  8.50000000E-01  7.20000000E-01
  7.20000000E-01  8.50000000E-01  8.50000000E-01  8.50000000E-01  7.20000000E-01
  7.20000000E-01  8.50000000E-01  7.20000000E-01  7.20000000E-01  8.50000000E-01
  7.20000000E-01  7.20000000E-01  8.50000000E-01  7.20000000E-01  7.20000000E-01
  8.50000000E-01  7.20000000E-01  8.50000000E-01  8.50000000E-01  8.50000000E-01
  7.20000000E-01  7.20000000E-01  7.20000000E-01  7.20000000E-01  7.20000000E-01
  8.50000000E-01  7.20000000E-01  7.20000000E-01  7.20000000E-01  7.20000000E-01
  7.20000000E-01  8.50000000E-01  8.50000000E-01  7.20000000E-01  8.50000000E-01
  7.20000000E-01  7.20000000E-01  8.50000000E-01  8.50000000E-01  8.50000000E-01
  7.20000000E-01  7.20000000E-01  8.50000000E-01  7.20000000E-01  7.20000000E-01
  8.50000000E-01  7.20000000E-01  7.20000000E-01  8.50000000E-01  7.20000000E-01
  7.20000000E-01  8.50000000E-01  7.20000000E-01  8.50000000E-01  8.50000000E-01
  8.50000000E-01  7.20000000E-01  7.20000000E-01  7.20000000E-01  7.20000000E-01
  7.20000000E-01  8.50000000E-01  7.20000000E-01  7.20000000E-01  7.20000000E-01
  7.20000000E-01  7.20000000E-01  8.50000000E-01  8.50000000E-01  7.20000000E-01
  8.50000000E-01  7.20000000E-01  7.20000000E-01  8.50000000E-01  8.50000000E-01
  8.50000000E-01  7.20000000E-01  7.20000000E-01  8.50000000E-01  7.20000000E-01
  7.20000000E-01  8.50000000E-01  7.20000000E-01  7.20000000E-01  8.50000000E-01
  7.20000000E-01  7.20000000E-01  8.50000000E-01  7.20000000E-01  8.50000000E-01
  8.50000000E-01  8.50000000E-01  7.20000000E-01  7.20000000E-01  7.20000000E-01
  7.20000000E-01  7.20000000E-01  8.50000000E-01  7.20000000E-01  7.20000000E-01
  7.20000000E-01  7.20000000E-01  7.20000000E-01  8.50000000E-01  8.50000000E-01
  7.20000000E-01  8.50000000E-01  7.20000000E-01  7.20000000E-01  8.50000000E-01
  8.50000000E-01  8.50000000E-01  7.20000000E-01  7.20000000E-01  8.50000000E-01
  7.20000000E-01  7.20000000E-01  8.50000000E-01  7.20000000E-01  7.20000000E-01
  8.50000000E-01  7.20000000E-01  7.20000000E-01  8.50000000E-01  7.20000000E-01
  8.50000000E-01  8.50000000E-01  8.50000000E-01  7.20000000E-01  7.20000000E-01
  7.20000000E-01  7.20000000E-01  7.20000000E-01  8.50000000E-01  7.20000000E-01
  7.20000000E-01  7.20000000E-01  7.20000000E-01  7.20000000E-01  8.50000000E-01
  8.50000000E-01  7.20000000E-01  8.50000000E-01  7.20000000E-01  7.20000000E-01
  8.50000000E-01  8.50000000E-01  8.50000000E-01  7.20000000E-01  7.20000000E-01
  8.50000000E-01  7.20000000E-01  7.20000000E-01  8.50000000E-01  7.20000000E-01
  7.20000000E-01  8.50000000E-01  7.20000000E-01  7.20000000E-01  8.50000000E-01
  7.20000000E-01  8.50000000E-01  8.50000000E-01  8.50000000E-01  7.20000000E-01
  7.20000000E-01  7.20000000E-01  7.20000000E-01  7.20000000E-01  8.50000000E-01
  7.20000000E-01  7.20000000E-01  7.20000000E-01  7.20000000E-01  7.20000000E-01
  8.50000000E-01  8.50000000E-01  7.20000000E-01  8.50000000E-01  7.20000000E-01
  7.20000000E-01  8.50000000E-01  8.50000000E-01  8.50000000E-01  7.20000000E-01
  7.20000000E-01  8.50000000E-01  7.20000000E-01  7.20000000E-01  8.50000000E-01
  7.20000000E-01  7.20000000E-01  8.50000000E-01  7.20000000E-01  7.20000000E-01
  8.50000000E-01  7.20000000E-01  8.50000000E-01  8.50000000E-01  8.50000000E-01
  7.20000000E-01  7.20000000E-01  7.20000000E-01  7.20000000E-01  7.20000000E-01
  8.50000000E-01  7.20000000E-01  7.20000000E-01  7.20000000E-01  7.20000000E-01
  7.20000000E-01  8.50000000E-01  8.50000000E-01  7.20000000E-01  8.50000000E-01
  7.20000000E-01  7.20000000E-01  8.50000000E-01  8.50000000E-01  8.50000000E-01
  7.20000000E-01  7.20000000E-01  8.50000000E-01  7.20000000E-01  7.20000000E-01
  8.50000000E-01  7.20000000E-01  7.20000000E-01  8.50000000E-01  7.20000000E-01
  7.20000000E-01  8.50000000E-01  7.20000000E-01  8.50000000E-01  8.50000000E-01
  8.50000000E-01  7.20000000E-01  7.20000000E-01  7.20000000E-01  7.20000000E-01
  7.20000000E-01  8.50000000E-01  7.20000000E-01  7.20000000E-01  7.20000000E-01
  7.20000000E-01  7.20000000E-01  8.50000000E-01  8.50000000E-01  7.20000000E-01
  8.50000000E-01  7.20000000E-01  7.20000000E-01  8.50000000E-01  8.50000000E-01
  8.50000000E-01  7.20000000E-01  7.20000000E-01  8.50000000E-01  7.20000000E-01
  7.20000000E-01  8.50000000E-01  7.20000000E-01  7.20000000E-01  8.50000000E-01
  7.20000000E-01  7.20000000E-01  8.50000000E-01  7.20000000E-01  8.50000000E-01
  8.50000000E-01  8.50000000E-01  7.20000000E-01  7.20000000E-01  7.20000000E-01
  7.20000000E-01  7.20000000E-01  8.50000000E-01  7.20000000E-01  7.20000000E-01
  7.20000000E-01  7.20000000E-01  7.20000000E-01  8.50000000E-01  8.50000000E-01
  7.20000000E-01  8.50000000E-01  7.20000000E-01  7.20000000E-01  8.50000000E-01
  8.50000000E-01  8.50000000E-01  7.20000000E-01  7.20000000E-01  8.50000000E-01
  7.20000000E-01  7.20000000E-01  8.50000000E-01  7.20000000E-01  7.20000000E-01
  8.50000000E-01  7.20000000E-01  7.20000000E-01  8.50000000E-01  7.20000000E-01
  8.50000000E-01  8.50000000E-01  8.50000000E-01  7.20000000E-01  7.20000000E-01
  7.20000000E-01  7.20000000E-01  7.20000000E-01  8.50000000E-01  7.20000000E-01
  7.20000000E-01  7.20000000E-01  7.20000000E-01  7.20000000E-01  8.50000000E-01
  8.50000000E-01  7.20000000E-01  8.50000000E-01  7.20000000E-01  7.20000000E-01
  8.50000000E-01  8.50000000E-01  8.50000000E-01  7.20000000E-01  7.20000000E-01
  8.50000000E-01  7.20000000E-01  7.20000000E-01  8.50000000E-01  7.20000000E-01
  7.20000000E-01  8.50000000E-01  7.20000000E-01  7.20000000E-01  8.50000000E-01
  7.20000000E-01  8.50000000E-01  8.50000000E-01  8.50000000E-01  7.20000000E-01
  7.20000000E-01  7.20000000E-01  7.20000000E-01  7.20000000E-01  8.50000000E-01
  7.20000000E-01  7.20000000E-01  7.20000000E-01  7.20000000E-01  7.20000000E-01
  8.50000000E-01  8.50000000E-01  7.20000000E-01  8.50000000E-01  7.20000000E-01
  7.20000000E-01  8.50000000E-01  8.50000000E-01  8.50000000E-01  7.20000000E-01
  7.20000000E-01  8.50000000E-01  7.20000000E-01  7.20000000E-01  8.50000000E-01
  7.20000000E-01  7.20000000E-01  8.50000000E-01  7.20000000E-01  7.20000000E-01
  8.50000000E-01  7.20000000E-01  8.50000000E-01  8.50000000E-01  8.50000000E-01
  7.20000000E-01  7.20000000E-01  7.20000000E-01  7.20000000E-01  7.20000000E-01
  8.50000000E-01  7.20000000E-01  7.20000000E-01  7.20000000E-01  7.20000000E-01
  7.20000000E-01  8.50000000E-01  8.50000000E-01  7.20000000E-01  8.50000000E-01
  7.20000000E-01  7.20000000E-01  8.50000000E-01  8.50000000E-01  8.50000000E-01
  7.20000000E-01  7.20000000E-01  8.50000000E-01  7.20000000E-01  7.20000000E-01
  8.50000000E-01  7.20000000E-01  7.20000000E-01  8.50000000E-01  7.20000000E-01
  7.20000000E-01  8.50000000E-01  7.20000000E-01  8.50000000E-01  8.50000000E-01
  8.50000000E-01  7.20000000E-01  7.20000000E-01  7.20000000E-01  7.20000000E-01
  7.20000000E-01  8.50000000E-01  7.20000000E-01  7.20000000E-01  7.20000000E-01
  7.20000000E-01  7.20000000E-01  8.50000000E-01  8.50000000E-01  7.20000000E-01
  8.50000000E-01  7.20000000E-01  7.20000000E-01  8.50000000E-01  8.50000000E-01
  8.50000000E-01  7.20000000E-01  7.20000000E-01  8.50000000E-01  7.20000000E-01
  7.20000000E-01  8.50000000E-01  7.20000000E-01  7.20000000E-01  8.50000000E-01
  7.20000000E-01  7.20000000E-01  8.50000000E-01  7.20000000E-01  8.50000000E-01
  8.50000000E-01  8.50000000E-01  7.20000000E-01  7.20000000E-01  7.20000000E-01
  7.20000000E-01  7.20000000E-01  8.50000000E-01  7.20000000E-01  7.20000000E-01
  7.20000000E-01  7.20000000E-01  7.20000000E-01  8.50000000E-01  8.50000000E-01
  7.20000000E-01  8.50000000E-01  7.20000000E-01  7.20000000E-01  8.50000000E-01
  8.50000000E-01  8.50000000E-01  7.20000000E-01  7.20000000E-01  8.50000000E-01
  7.20000000E-01  7.20000000E-01  8.50000000E-01  7.20000000E-01  7.20000000E-01
  8.50000000E-01  7.20000000E-01  7.20000000E-01  8.50000000E-01  7.20000000E-01
  8.50000000E-01  8.50000000E-01  8.50000000E-01  7.20000000E-01  7.20000000E-01
  7.20000000E-01  7.20000000E-01  7.20000000E-01  8.50000000E-01  7.20000000E-01
  7.20000000E-01  7.20000000E-01  7.20000000E-01  7.20000000E-01  8.50000000E-01
  8.50000000E-01  7.20000000E-01  8.50000000E-01  7.20000000E-01  7.20000000E-01
  8.50000000E-01  8.50000000E-01  8.50000000E-01  7.20000000E-01  7.20000000E-01
  8.50000000E-01  7.20000000E-01  7.20000000E-01  8.50000000E-01  7.20000000E-01
  7.20000000E-01  8.50000000E-01  7.20000000E-01  7.20000000E-01  8.50000000E-01
  7.20000000E-01  8.50000000E-01  8.50000000E-01  8.50000000E-01  7.20000000E-01
  7.20000000E-01  7.20000000E-01  7.20000000E-01  7.20000000E-01  8.50000000E-01
  7.20000000E-01  7.20000000E-01  7.20000000E-01  7.20000000E-01  7.20000000E-01
  8.50000000E-01  8.50000000E-01  7.20000000E-01  8.50000000E-01  7.20000000E-01
  7.20000000E-01  8.50000000E-01  8.50000000E-01  8.50000000E-01  7.20000000E-01
  7.20000000E-01  8.50000000E-01  7.20000000E-01  7.20000000E-01  8.50000000E-01
  7.20000000E-01  7.20000000E-01  8.50000000E-01  7.20000000E-01  7.20000000E-01
  8.50000000E-01  7.20000000E-01  8.50000000E-01  8.50000000E-01  8.50000000E-01
  7.20000000E-01  7.20000000E-01  7.20000000E-01  7.20000000E-01  7.20000000E-01
  8.50000000E-01  7.20000000E-01  7.20000000E-01  7.20000000E-01  7.20000000E-01
  7.20000000E-01  8.50000000E-01  8.50000000E-01  7.20000000E-01  8.50000000E-01
  7.20000000E-01  7.20000000E-01  8.50000000E-01  8.50000000E-01  8.50000000E-01
  7.20000000E-01  7.20000000E-01  8.50000000E-01  7.20000000E-01  7.20000000E-01
  8.50000000E-01  7.20000000E-01  7.20000000E-01  8.50000000E-01  7.20000000E-01
  7.20000000E-01  8.50000000E-01  7.20000000E-01  8.50000000E-01  8.50000000E-01
  8.50000000E-01  7.20000000E-01  7.20000000E-01  7.20000000E-01  7.20000000E-01
  7.20000000E-01  8.50000000E-01  7.20000000E-01  7.20000000E-01  7.20000000E-01
  7.20000000E-01  7.20000000E-01  8.50000000E-01  8.50000000E-01  7.20000000E-01
  8.50000000E-01  7.20000000E-01  7.20000000E-01  8.50000000E-01  8.50000000E-01
  8.50000000E-01  7.20000000E-01  7.20000000E-01  8.50000000E-01  7.20000000E-01
  7.20000000E-01  8.50000000E-01  7.20000000E-01  7.20000000E-01  8.50000000E-01
  7.20000000E-01  7.20000000E-01  8.50000000E-01  7.20000000E-01  8.50000000E-01
  8.50000000E-01  8.50000000E-01  7.20000000E-01  7.20000000E-01  7.20000000E-01
  7.20000000E-01  7.20000000E-01  8.50000000E-01  7.20000000E-01  7.20000000E-01
  7.20000000E-01  7.20000000E-01  7.20000000E-01  8.50000000E-01  8.50000000E-01
  7.20000000E-01  8.50000000E-01  7.20000000E-01  7.20000000E-01  8.50000000E-01
  8.50000000E-01  8.50000000E-01  7.20000000E-01  7.20000000E-01  8.50000000E-01
  7.20000000E-01  7.20000000E-01  8.50000000E-01  7.20000000E-01  7.20000000E-01
  8.50000000E-01  7.20000000E-01  7.20000000E-01  8.50000000E-01  7.20000000E-01
  8.50000000E-01  8.50000000E-01  8.50000000E-01  7.20000000E-01  7.20000000E-01
  7.20000000E-01  7.20000000E-01  7.20000000E-01  8.50000000E-01  7.20000000E-01
  7.20000000E-01  7.20000000E-01  7.20000000E-01  7.20000000E-01  8.50000000E-01
  8.50000000E-01  7.20000000E-01  8.50000000E-01  7.20000000E-01  7.20000000E-01
  8.50000000E-01  8.50000000E-01  8.50000000E-01  7.20000000E-01  7.20000000E-01
  8.50000000E-01  7.20000000E-01  7.20000000E-01  8.50000000E-01  7.20000000E-01
  7.20000000E-01  8.50000000E-01  7.20000000E-01  7.20000000E-01  8.50000000E-01
  7.20000000E-01  8.50000000E-01  8.50000000E-01  8.50000000E-01  7.20000000E-01
  7.20000000E-01  7.20000000E-01  7.20000000E-01  7.20000000E-01  8.50000000E-01
  7.20000000E-01  7.20000000E-01  7.20000000E-01  7.20000000E-01  7.20000000E-01
  8.50000000E-01  8.50000000E-01  7.20000000E-01  8.50000000E-01  7.20000000E-01
  7.20000000E-01  8.50000000E-01  8.50000000E-01  8.50000000E-01  7.20000000E-01
  7.20000000E-01  8.50000000E-01  7.20000000E-01  7.20000000E-01  8.50000000E-01
  7.20000000E-01  7.20000000E-01  8.50000000E-01  7.20000000E-01  7.20000000E-01
  8.50000000E-01  7.20000000E-01  8.50000000E-01  8.50000000E-01  8.50000000E-01
  7.20000000E-01  7.20000000E-01  7.20000000E-01  7.20000000E-01  7.20000000E-01
  8.50000000E-01  7.20000000E-01  7.20000000E-01  7.20000000E-01  7.20000000E-01
  7.20000000E-01  8.50000000E-01  8.50000000E-01  7.20000000E-01  8.50000000E-01
  7.20000000E-01  7.20000000E-01  8.50000000E-01  8.50000000E-01  8.50000000E-01
  7.20000000E-01  7.20000000E-01  8.50000000E-01  7.20000000E-01  7.20000000E-01
  8.50000000E-01  7.20000000E-01  7.20000000E-01  8.50000000E-01  7.20000000E-01
  7.20000000E-01  8.50000000E-01  7.20000000E-01  8.50000000E-01  8.50000000E-01
  8.50000000E-01  7.20000000E-01  7.20000000E-01  7.20000000E-01  7.20000000E-01
  7.20000000E-01  8.50000000E-01  7.20000000E-01  7.20000000E-01  7.20000000E-01
  7.20000000E-01  7.20000000E-01  8.50000000E-01  8.50000000E-01  7.20000000E-01
  8.50000000E-01  7.20000000E-01  7.20000000E-01  8.50000000E-01  8.50000000E-01
  8.50000000E-01  7.20000000E-01  7.20000000E-01  8.50000000E-01  7.20000000E-01
  7.20000000E-01  8.50000000E-01  7.20000000E-01  7.20000000E-01  8.50000000E-01
  7.20000000E-01  7.20000000E-01  8.50000000E-01  7.20000000E-01  8.50000000E-01
  8.50000000E-01  8.50000000E-01  7.20000000E-01  7.20000000E-01  7.20000000E-01
  7.20000000E-01  7.20000000E-01  8.50000000E-01  7.20000000E-01  7.20000000E-01
  7.20000000E-01  7.20000000E-01  7.20000000E-01  8.50000000E-01  8.50000000E-01
  7.20000000E-01  8.50000000E-01  7.20000000E-01  7.20000000E-01  8.50000000E-01
  8.50000000E-01  8.50000000E-01  7.20000000E-01  7.20000000E-01  8.50000000E-01
  7.20000000E-01  7.20000000E-01  8.50000000E-01  7.20000000E-01  7.20000000E-01
  8.50000000E-01  7.20000000E-01  7.20000000E-01  8.50000000E-01  7.20000000E-01
  8.50000000E-01  8.50000000E-01  8.50000000E-01  7.20000000E-01  7.20000000E-01
  7.20000000E-01  7.20000000E-01  7.20000000E-01  8.50000000E-01  7.20000000E-01
  7.20000000E-01  7.20000000E-01  7.20000000E-01  7.20000000E-01  8.50000000E-01
  8.50000000E-01  7.20000000E-01  8.50000000E-01  7.20000000E-01  7.20000000E-01
  8.50000000E-01  8.50000000E-01  8.50000000E-01  7.20000000E-01  7.20000000E-01
  8.50000000E-01  7.20000000E-01  7.20000000E-01  8.50000000E-01  7.20000000E-01
  7.20000000E-01  8.50000000E-01  7.20000000E-01  7.20000000E-01  8.50000000E-01
  7.20000000E-01  8.50000000E-01  8.50000000E-01  8.50000000E-01  7.20000000E-01
  7.20000000E-01  7.20000000E-01  7.20000000E-01  7.20000000E-01  8.50000000E-01
  7.20000000E-01  7.20000000E-01  7.20000000E-01  7.20000000E-01  7.20000000E-01
  8.50000000E-01  8.50000000E-01  7.20000000E-01  8.50000000E-01  7.20000000E-01
  7.20000000E-01  8.50000000E-01  8.50000000E-01  8.50000000E-01  7.20000000E-01
  7.20000000E-01  8.50000000E-01  7.20000000E-01  7.20000000E-01  8.50000000E-01
  7.20000000E-01  7.20000000E-01  8.50000000E-01  7.20000000E-01  7.20000000E-01
  8.50000000E-01  7.20000000E-01  8.50000000E-01  8.50000000E-01  8.50000000E-01
  7.20000000E-01  7.20000000E-01  7.20000000E-01  7.20000000E-01  7.20000000E-01
  8.50000000E-01  7.20000000E-01  7.20000000E-01  7.20000000E-01  7.20000000E-01
  7.20000000E-01  8.50000000E-01  8.50000000E-01  7.20000000E-01  8.50000000E-01
  7.20000000E-01  7.20000000E-01  8.50000000E-01  8.50000000E-01  8.50000000E-01
  7.20000000E-01  7.20000000E-01  8.50000000E-01  7.20000000E-01  7.20000000E-01
  8.50000000E-01  7.20000000E-01  7.20000000E-01  8.50000000E-01  7.20000000E-01
  7.20000000E-01  8.50000000E-01  7.20000000E-01  8.50000000E-01  8.50000000E-01
  8.50000000E-01  7.20000000E-01  7.20000000E-01  7.20000000E-01  7.20000000E-01
  7.20000000E-01  8.50000000E-01  7.20000000E-01  7.20000000E-01  7.20000000E-01
  7.20000000E-01  7.20000000E-01  8.50000000E-01  8.50000000E-01  7.20000000E-01
  8.50000000E-01  7.20000000E-01  7.20000000E-01  8.50000000E-01  8.50000000E-01
  8.50000000E-01  7.20000000E-01  7.20000000E-01  8.50000000E-01  7.20000000E-01
  7.20000000E-01  8.50000000E-01  7.20000000E-01  7.20000000E-01  8.50000000E-01
  7.20000000E-01  7.20000000E-01  8.50000000E-01  7.20000000E-01  8.50000000E-01
  8.50000000E-01  8.50000000E-01  7.20000000E-01  7.20000000E-01  7.20000000E-01
  7.20000000E-01  7.20000000E-01  8.50000000E-01  7.20000000E-01  7.20000000E-01
  7.20000000E-01  7.20000000E-01  7.20000000E-01  8.50000000E-01  8.50000000E-01
  7.20000000E-01  8.50000000E-01  7.20000000E-01  7.20000000E-01  8.50000000E-01
  8.50000000E-01  8.50000000E-01  7.20000000E-01  7.20000000E-01  8.50000000E-01
  7.20000000E-01  7.20000000E-01  8.50000000E-01  7.20000000E-01  7.20000000E-01
  8.50000000E-01  7.20000000E-01  7.20000000E-01  8.50000000E-01  7.20000000E-01
  8.50000000E-01  8.50000000E-01  8.50000000E-01  7.20000000E-01  7.20000000E-01
  7.20000000E-01  7.20000000E-01  7.20000000E-01  8.50000000E-01  7.20000000E-01
  7.20000000E-01  7.20000000E-01  7.20000000E-01  7.20000000E-01  8.50000000E-01
  8.50000000E-01  7.20000000E-01  8.50000000E-01  7.20000000E-01  7.20000000E-01
  8.50000000E-01  8.50000000E-01  8.50000000E-01  7.20000000E-01  7.20000000E-01
  8.50000000E-01  7.20000000E-01  7.20000000E-01  8.50000000E-01  7.20000000E-01
  7.20000000E-01  8.50000000E-01  7.20000000E-01  7.20000000E-01  8.50000000E-01
  7.20000000E-01  8.50000000E-01  8.50000000E-01  8.50000000E-01  7.20000000E-01
  7.20000000E-01  7.20000000E-01  7.20000000E-01  7.20000000E-01  8.50000000E-01
  7.20000000E-01  7.20000000E-01  7.20000000E-01  7.20000000E-01  7.20000000E-01
  8.50000000E-01  8.50000000E-01  7.20000000E-01  8.50000000E-01  7.20000000E-01
  7.20000000E-01  8.50000000E-01  8.50000000E-01  8.50000000E-01  7.20000000E-01
  7.20000000E-01  8.50000000E-01  7.20000000E-01  7.20000000E-01  8.50000000E-01
  7.20000000E-01  7.20000000E-01  8.50000000E-01  7.20000000E-01  7.20000000E-01
  8.50000000E-01  7.20000000E-01  8.50000000E-01  8.50000000E-01  8.50000000E-01
  7.20000000E-01  7.20000000E-01  7.20000000E-01  7.20000000E-01  7.20000000E-01
  8.50000000E-01  7.20000000E-01  7.20000000E-01  7.20000000E-01  7.20000000E-01
  7.20000000E-01  8.50000000E-01  8.50000000E-01  7.20000000E-01  8.50000000E-01
  7.20000000E-01  7.20000000E-01  8.50000000E-01  8.50000000E-01  8.50000000E-01
  7.20000000E-01  7.20000000E-01  8.50000000E-01  7.20000000E-01  7.20000000E-01
  8.50000000E-01  7.20000000E-01  7.20000000E-01  8.50000000E-01  7.20000000E-01
  7.20000000E-01  8.50000000E-01  7.20000000E-01  8.50000000E-01  8.50000000E-01
  8.50000000E-01  7.20000000E-01  7.20000000E-01  7.20000000E-01  7.20000000E-01
  7.20000000E-01  8.50000000E-01  7.20000000E-01  7.20000000E-01  7.20000000E-01
  7.20000000E-01  7.20000000E-01  8.50000000E-01  8.50000000E-01  7.20000000E-01
  8.50000000E-01  7.20000000E-01  7.20000000E-01  8.50000000E-01  8.50000000E-01
  8.50000000E-01  7.20000000E-01  7.20000000E-01  8.50000000E-01  7.20000000E-01
  7.20000000E-01  8.50000000E-01  7.20000000E-01  7.20000000E-01  8.50000000E-01
  7.20000000E-01  7.20000000E-01  8.50000000E-01  7.20000000E-01  8.50000000E-01
  8.50000000E-01  8.50000000E-01  7.20000000E-01  7.20000000E-01  7.20000000E-01
  7.20000000E-01  7.20000000E-01  8.50000000E-01  7.20000000E-01  7.20000000E-01
  7.20000000E-01  7.20000000E-01  7.20000000E-01  8.50000000E-01  8.50000000E-01
  7.20000000E-01  8.50000000E-01  7.20000000E-01  7.20000000E-01  8.50000000E-01
  8.50000000E-01  8.50000000E-01  7.20000000E-01  7.20000000E-01  8.50000000E-01
  7.20000000E-01  7.20000000E-01  8.50000000E-01  7.20000000E-01  7.20000000E-01
  8.50000000E-01  7.20000000E-01  7.20000000E-01  8.50000000E-01  7.20000000E-01
  8.50000000E-01  8.50000000E-01  8.50000000E-01  7.20000000E-01  7.20000000E-01
  7.20000000E-01  7.20000000E-01  7.20000000E-01  8.50000000E-01  7.20000000E-01
  7.20000000E-01  7.20000000E-01  7.20000000E-01  7.20000000E-01  8.50000000E-01
  8.50000000E-01  7.20000000E-01  8.50000000E-01  7.20000000E-01  7.20000000E-01
  8.50000000E-01  8.50000000E-01  8.50000000E-01  7.20000000E-01  7.20000000E-01
  8.50000000E-01  7.20000000E-01  7.20000000E-01  8.50000000E-01  7.20000000E-01
  7.20000000E-01  8.50000000E-01  7.20000000E-01  7.20000000E-01  8.50000000E-01
  7.20000000E-01  8.50000000E-01  8.50000000E-01  8.50000000E-01  7.20000000E-01
  7.20000000E-01  7.20000000E-01  7.20000000E-01  7.20000000E-01  8.50000000E-01
  7.20000000E-01  7.20000000E-01  7.20000000E-01  7.20000000E-01  7.20000000E-01
  8.50000000E-01  8.50000000E-01  7.20000000E-01  8.50000000E-01  7.20000000E-01
  7.20000000E-01  8.50000000E-01  8.50000000E-01  8.50000000E-01  7.20000000E-01
  7.20000000E-01  8.50000000E-01  7.20000000E-01  7.20000000E-01  8.50000000E-01
  7.20000000E-01  7.20000000E-01  8.50000000E-01  7.20000000E-01  7.20000000E-01
  8.50000000E-01  7.20000000E-01  8.50000000E-01  8.50000000E-01  8.50000000E-01
  7.20000000E-01  7.20000000E-01  7.20000000E-01  7.20000000E-01  7.20000000E-01
  8.50000000E-01  7.20000000E-01  7.20000000E-01  7.20000000E-01  7.20000000E-01
  7.20000000E-01  8.50000000E-01  8.50000000E-01  7.20000000E-01  8.50000000E-01
  7.20000000E-01  7.20000000E-01  8.50000000E-01  8.50000000E-01  8.50000000E-01
  7.20000000E-01  7.20000000E-01  8.50000000E-01  7.20000000E-01  7.20000000E-01
  8.50000000E-01  7.20000000E-01  7.20000000E-01  8.50000000E-01  7.20000000E-01
  7.20000000E-01  8.50000000E-01  7.20000000E-01  8.50000000E-01  8.50000000E-01
  8.50000000E-01  7.20000000E-01  7.20000000E-01  7.20000000E-01  7.20000000E-01
  7.20000000E-01  8.50000000E-01  7.20000000E-01  7.20000000E-01  7.20000000E-01
  7.20000000E-01  7.20000000E-01  8.50000000E-01  8.50000000E-01  7.20000000E-01
  8.50000000E-01  7.20000000E-01  7.20000000E-01  8.50000000E-01  8.50000000E-01
  8.50000000E-01  7.20000000E-01  7.20000000E-01  8.50000000E-01  7.20000000E-01
  7.20000000E-01  8.50000000E-01  7.20000000E-01  7.20000000E-01  8.50000000E-01
  7.20000000E-01  7.20000000E-01  8.50000000E-01  7.20000000E-01  8.50000000E-01
  8.50000000E-01  8.50000000E-01  7.20000000E-01  7.20000000E-01  7.20000000E-01
  7.20000000E-01  7.20000000E-01  8.50000000E-01  7.20000000E-01  7.20000000E-01
  7.20000000E-01  7.20000000E-01  7.20000000E-01  8.50000000E-01  8.50000000E-01
  7.20000000E-01  8.50000000E-01  7.20000000E-01  7.20000000E-01  8.50000000E-01
  8.50000000E-01  8.50000000E-01  7.20000000E-01  7.20000000E-01  8.50000000E-01
  7.20000000E-01  7.20000000E-01  8.50000000E-01  7.20000000E-01  7.20000000E-01
  8.50000000E-01  7.20000000E-01  7.20000000E-01  8.50000000E-01  7.20000000E-01
  8.50000000E-01  8.50000000E-01  8.50000000E-01  7.20000000E-01  7.20000000E-01
  7.20000000E-01  7.20000000E-01  7.20000000E-01  8.50000000E-01  7.20000000E-01
  7.20000000E-01  7.20000000E-01  7.20000000E-01  7.20000000E-01  8.50000000E-01
  8.50000000E-01  7.20000000E-01  8.50000000E-01  7.20000000E-01  7.20000000E-01
  8.50000000E-01  8.50000000E-01  8.50000000E-01  7.20000000E-01  7.20000000E-01
  8.50000000E-01  7.20000000E-01  7.20000000E-01  8.50000000E-01  7.20000000E-01
  7.20000000E-01  8.50000000E-01  7.20000000E-01  7.20000000E-01  8.50000000E-01
  7.20000000E-01  8.50000000E-01  8.50000000E-01  8.50000000E-01  7.20000000E-01
  7.20000000E-01  7.20000000E-01  7.20000000E-01  7.20000000E-01  8.50000000E-01
  7.20000000E-01  7.20000000E-01  7.20000000E-01  7.20000000E-01  7.20000000E-01
  8.50000000E-01  8.50000000E-01  7.20000000E-01  8.50000000E-01  7.20000000E-01
  7.20000000E-01  8.50000000E-01  8.50000000E-01  8.50000000E-01  7.20000000E-01
  7.20000000E-01  8.50000000E-01  7.20000000E-01  7.20000000E-01  8.50000000E-01
  7.20000000E-01  7.20000000E-01  8.50000000E-01  7.20000000E-01  7.20000000E-01
  8.50000000E-01  7.20000000E-01  8.50000000E-01  8.50000000E-01  8.50000000E-01
  7.20000000E-01  7.20000000E-01  7.20000000E-01  7.20000000E-01  7.20000000E-01
  8.50000000E-01  7.20000000E-01  7.20000000E-01  7.20000000E-01  7.20000000E-01
  7.20000000E-01  8.50000000E-01  8.50000000E-01  7.20000000E-01  8.50000000E-01
  7.20000000E-01  7.20000000E-01  8.50000000E-01  8.50000000E-01  8.50000000E-01
  7.20000000E-01  7.20000000E-01  8.50000000E-01  7.20000000E-01  7.20000000E-01
  8.50000000E-01  7.20000000E-01  7.20000000E-01  8.50000000E-01  7.20000000E-01
  7.20000000E-01  8.50000000E-01  7.20000000E-01  8.50000000E-01  8.50000000E-01
  8.50000000E-01  7.20000000E-01  7.20000000E-01  7.20000000E-01  7.20000000E-01
  7.20000000E-01  8.50000000E-01  7.20000000E-01  7.20000000E-01  7.20000000E-01
  7.20000000E-01  7.20000000E-01  8.50000000E-01  8.50000000E-01  7.20000000E-01
  8.50000000E-01  7.20000000E-01  7.20000000E-01  8.50000000E-01  8.50000000E-01
  8.50000000E-01  7.20000000E-01  7.20000000E-01  8.50000000E-01  7.20000000E-01
  7.20000000E-01  8.50000000E-01  7.20000000E-01  7.20000000E-01  8.50000000E-01
  7.20000000E-01  7.20000000E-01  8.50000000E-01  7.20000000E-01  8.50000000E-01
  8.50000000E-01  8.50000000E-01  7.20000000E-01  7.20000000E-01  7.20000000E-01
  7.20000000E-01  7.20000000E-01  8.50000000E-01  7.20000000E-01  7.20000000E-01
  7.20000000E-01  7.20000000E-01  7.20000000E-01  8.50000000E-01  8.50000000E-01
  7.20000000E-01  8.50000000E-01  7.20000000E-01  7.20000000E-01  8.50000000E-01
  8.50000000E-01  8.50000000E-01  7.20000000E-01  7.20000000E-01  8.50000000E-01
  7.20000000E-01  7.20000000E-01  8.50000000E-01  7.20000000E-01  7.20000000E-01
  8.50000000E-01  7.20000000E-01  7.20000000E-01  8.50000000E-01  7.20000000E-01
  8.50000000E-01  8.50000000E-01  8.50000000E-01  7.20000000E-01  7.20000000E-01
  7.20000000E-01  7.20000000E-01  7.20000000E-01  8.50000000E-01  7.20000000E-01
  7.20000000E-01  7.20000000E-01  7.20000000E-01  7.20000000E-01  8.50000000E-01
  8.50000000E-01  7.20000000E-01  8.50000000E-01  7.20000000E-01  7.20000000E-01
  8.50000000E-01  8.50000000E-01  8.50000000E-01  7.20000000E-01  7.20000000E-01
  8.50000000E-01  7.20000000E-01  7.20000000E-01  8.50000000E-01  7.20000000E-01
  7.20000000E-01  8.50000000E-01  7.20000000E-01  7.20000000E-01  8.50000000E-01
  7.20000000E-01  8.50000000E-01  8.50000000E-01  8.50000000E-01  7.20000000E-01
  7.20000000E-01  7.20000000E-01  7.20000000E-01  7.20000000E-01  8.50000000E-01
  7.20000000E-01  7.20000000E-01  7.20000000E-01  7.20000000E-01  7.20000000E-01
  8.50000000E-01  8.50000000E-01  7.20000000E-01  8.50000000E-01  7.20000000E-01
  7.20000000E-01  8.50000000E-01  8.50000000E-01  8.50000000E-01  7.20000000E-01
  7.20000000E-01  8.50000000E-01  7.20000000E-01  7.20000000E-01  8.50000000E-01
  7.20000000E-01  7.20000000E-01  8.50000000E-01  7.20000000E-01  7.20000000E-01
  8.50000000E-01  7.20000000E-01  8.50000000E-01  8.50000000E-01  8.50000000E-01
  7.20000000E-01  7.20000000E-01  7.20000000E-01  7.20000000E-01  7.20000000E-01
  8.50000000E-01  7.20000000E-01  7.20000000E-01  7.20000000E-01  7.20000000E-01
  7.20000000E-01  8.50000000E-01  8.50000000E-01  7.20000000E-01  8.50000000E-01
  7.20000000E-01  7.20000000E-01  8.50000000E-01  8.50000000E-01  8.50000000E-01
  7.20000000E-01  7.20000000E-01  8.50000000E-01  7.20000000E-01  7.20000000E-01
  8.50000000E-01  7.20000000E-01  7.20000000E-01  8.50000000E-01  7.20000000E-01
  7.20000000E-01  8.50000000E-01  7.20000000E-01  8.50000000E-01  8.50000000E-01
  8.50000000E-01  7.20000000E-01  7.20000000E-01  7.20000000E-01  7.20000000E-01
  7.20000000E-01  8.50000000E-01  7.20000000E-01  7.20000000E-01  7.20000000E-01
  7.20000000E-01  7.20000000E-01  8.50000000E-01  8.50000000E-01  7.20000000E-01
  8.50000000E-01  7.20000000E-01  7.20000000E-01  8.50000000E-01  8.50000000E-01
  8.50000000E-01  7.20000000E-01  7.20000000E-01  8.50000000E-01  7.20000000E-01
  7.20000000E-01  8.50000000E-01  7.20000000E-01  7.20000000E-01  8.50000000E-01
  7.20000000E-01  7.20000000E-01  8.50000000E-01  7.20000000E-01  8.50000000E-01
  8.50000000E-01  8.50000000E-01  7.20000000E-01  7.20000000E-01  7.20000000E-01
  7.20000000E-01  7.20000000E-01  8.50000000E-01  7.20000000E-01  7.20000000E-01
  7.20000000E-01  7.20000000E-01  7.20000000E-01  8.50000000E-01  8.50000000E-01
  7.20000000E-01  8.50000000E-01  7.20000000E-01  7.20000000E-01  8.50000000E-01
  8.50000000E-01  8.50000000E-01  7.20000000E-01  7.20000000E-01  8.50000000E-01
  7.20000000E-01  7.20000000E-01  8.50000000E-01  7.20000000E-01  7.20000000E-01
  8.50000000E-01  7.20000000E-01  7.20000000E-01  8.50000000E-01  7.20000000E-01
  8.50000000E-01  8.50000000E-01  8.50000000E-01  7.20000000E-01  7.20000000E-01
  7.20000000E-01  7.20000000E-01  7.20000000E-01  8.50000000E-01  7.20000000E-01
  7.20000000E-01  7.20000000E-01  7.20000000E-01  7.20000000E-01  8.50000000E-01
  8.50000000E-01  7.20000000E-01  8.50000000E-01  7.20000000E-01  7.20000000E-01
  8.50000000E-01  8.50000000E-01  8.50000000E-01  7.20000000E-01  7.20000000E-01
  8.50000000E-01  7.20000000E-01  7.20000000E-01  8.50000000E-01  7.20000000E-01
  7.20000000E-01  8.50000000E-01  7.20000000E-01  7.20000000E-01  8.50000000E-01
  7.20000000E-01  8.50000000E-01  8.50000000E-01  8.50000000E-01  7.20000000E-01
  7.20000000E-01  7.20000000E-01  7.20000000E-01  7.20000000E-01  8.50000000E-01
  7.20000000E-01  7.20000000E-01  7.20000000E-01  7.20000000E-01  7.20000000E-01
  8.50000000E-01  8.50000000E-01  7.20000000E-01  8.50000000E-01  7.20000000E-01
  7.20000000E-01  8.50000000E-01  8.50000000E-01  8.50000000E-01  7.20000000E-01
  7.20000000E-01  8.50000000E-01  7.20000000E-01  7.20000000E-01  8.50000000E-01
  7.20000000E-01  7.20000000E-01  8.50000000E-01  7.20000000E-01  7.20000000E-01
  8.50000000E-01  7.20000000E-01  8.50000000E-01  8.50000000E-01  8.50000000E-01
  7.20000000E-01  7.20000000E-01  7.20000000E-01  7.20000000E-01  7.20000000E-01
  8.50000000E-01  7.20000000E-01  7.20000000E-01  7.20000000E-01  7.20000000E-01
  7.20000000E-01  8.50000000E-01  8.50000000E-01  7.20000000E-01  8.50000000E-01
  7.20000000E-01  7.20000000E-01  8.50000000E-01  8.50000000E-01  8.50000000E-01
  7.20000000E-01  7.20000000E-01  8.50000000E-01  7.20000000E-01  7.20000000E-01
  8.50000000E-01  7.20000000E-01  7.20000000E-01  8.50000000E-01  7.20000000E-01
  7.20000000E-01  8.50000000E-01  7.20000000E-01  8.50000000E-01  8.50000000E-01
  8.50000000E-01  7.20000000E-01  7.20000000E-01  7.20000000E-01  7.20000000E-01
  7.20000000E-01  8.50000000E-01  7.20000000E-01  7.20000000E-01  7.20000000E-01
  7.20000000E-01  7.20000000E-01  8.50000000E-01  8.50000000E-01  7.20000000E-01
  8.50000000E-01  7.20000000E-01  7.20000000E-01  8.50000000E-01  8.50000000E-01
  8.50000000E-01  7.20000000E-01  7.20000000E-01  8.50000000E-01  7.20000000E-01
  7.20000000E-01  8.50000000E-01  7.20000000E-01  7.20000000E-01  8.50000000E-01
  7.20000000E-01  7.20000000E-01  8.50000000E-01  7.20000000E-01  8.50000000E-01
  8.50000000E-01  8.50000000E-01  7.20000000E-01  7.20000000E-01  7.20000000E-01
  7.20000000E-01  7.20000000E-01  8.50000000E-01  7.20000000E-01  7.20000000E-01
  7.20000000E-01  7.20000000E-01  7.20000000E-01  8.50000000E-01  8.50000000E-01
  7.20000000E-01  8.50000000E-01  7.20000000E-01  7.20000000E-01  8.50000000E-01
  8.50000000E-01  8.50000000E-01  7.20000000E-01  7.20000000E-01  8.50000000E-01
  7.20000000E-01  7.20000000E-01  8.50000000E-01  7.20000000E-01  7.20000000E-01
  8.50000000E-01  7.20000000E-01  7.20000000E-01  8.50000000E-01  7.20000000E-01
  8.50000000E-01  8.50000000E-01  8.50000000E-01  7.20000000E-01  7.20000000E-01
  7.20000000E-01  7.20000000E-01  7.20000000E-01  8.50000000E-01  7.20000000E-01
  7.20000000E-01  7.20000000E-01  7.20000000E-01  7.20000000E-01  8.50000000E-01
  8.50000000E-01  7.20000000E-01  8.50000000E-01  7.20000000E-01  7.20000000E-01
  8.50000000E-01  8.50000000E-01  8.50000000E-01  7.20000000E-01  7.20000000E-01
  8.50000000E-01  7.20000000E-01  7.20000000E-01  8.50000000E-01  7.20000000E-01
  7.20000000E-01  8.50000000E-01  7.20000000E-01  7.20000000E-01  8.50000000E-01
  7.20000000E-01  8.50000000E-01  8.50000000E-01  8.50000000E-01  7.20000000E-01
  7.20000000E-01  7.20000000E-01  7.20000000E-01  7.20000000E-01  8.50000000E-01
  7.20000000E-01  7.20000000E-01  7.20000000E-01  7.20000000E-01  7.20000000E-01
  8.50000000E-01  8.50000000E-01  7.20000000E-01  8.50000000E-01  7.20000000E-01
  7.20000000E-01  8.50000000E-01  8.50000000E-01  8.50000000E-01  7.20000000E-01
  7.20000000E-01  8.50000000E-01  7.20000000E-01  7.20000000E-01  8.50000000E-01
  7.20000000E-01  7.20000000E-01  8.50000000E-01  7.20000000E-01  7.20000000E-01
  8.50000000E-01  7.20000000E-01  8.50000000E-01  8.50000000E-01  8.50000000E-01
  7.20000000E-01  7.20000000E-01  7.20000000E-01  7.20000000E-01  7.20000000E-01
  8.50000000E-01  7.20000000E-01  7.20000000E-01  7.20000000E-01  7.20000000E-01
  7.20000000E-01  8.50000000E-01  8.50000000E-01  7.20000000E-01  8.50000000E-01
  7.20000000E-01  7.20000000E-01  8.50000000E-01  8.50000000E-01  8.50000000E-01
  7.20000000E-01  7.20000000E-01  8.50000000E-01  7.20000000E-01  7.20000000E-01
  8.50000000E-01  7.20000000E-01  7.20000000E-01  8.50000000E-01  7.20000000E-01
  7.20000000E-01  8.50000000E-01  7.20000000E-01  8.50000000E-01  8.50000000E-01
  8.50000000E-01  7.20000000E-01  7.20000000E-01  7.20000000E-01  7.20000000E-01
  7.20000000E-01  8.50000000E-01  7.20000000E-01  7.20000000E-01  7.20000000E-01
  7.20000000E-01  7.20000000E-01  8.50000000E-01  8.50000000E-01  7.20000000E-01
  8.50000000E-01  7.20000000E-01  7.20000000E-01  8.50000000E-01  8.50000000E-01
  8.50000000E-01  7.20000000E-01  7.20000000E-01  8.50000000E-01  7.20000000E-01
  7.20000000E-01  8.50000000E-01  7.20000000E-01  7.20000000E-01  8.50000000E-01
  7.20000000E-01  7.20000000E-01  8.50000000E-01  7.20000000E-01  8.50000000E-01
  8.50000000E-01  8.50000000E-01  7.20000000E-01  7.20000000E-01  7.20000000E-01
  7.20000000E-01  7.20000000E-01  8.50000000E-01  7.20000000E-01  7.20000000E-01
  7.20000000E-01  7.20000000E-01  7.20000000E-01  8.50000000E-01  8.50000000E-01
  7.20000000E-01  8.50000000E-01  7.20000000E-01  7.20000000E-01  8.50000000E-01
  8.50000000E-01  8.50000000E-01  7.20000000E-01  7.20000000E-01  8.50000000E-01
  7.20000000E-01  7.20000000E-01  8.50000000E-01  7.20000000E-01  7.20000000E-01
  8.50000000E-01  7.20000000E-01  7.20000000E-01  8.50000000E-01  7.20000000E-01
  8.50000000E-01  8.50000000E-01  8.50000000E-01  7.20000000E-01  7.20000000E-01
  7.20000000E-01  7.20000000E-01  7.20000000E-01  8.50000000E-01  7.20000000E-01
  7.20000000E-01  7.20000000E-01  7.20000000E-01  7.20000000E-01  8.50000000E-01
  8.50000000E-01  7.20000000E-01  8.50000000E-01  7.20000000E-01  7.20000000E-01
  8.50000000E-01  8.50000000E-01  8.50000000E-01  7.20000000E-01  7.20000000E-01
  8.50000000E-01  7.20000000E-01  7.20000000E-01  8.50000000E-01  7.20000000E-01
  7.20000000E-01  8.50000000E-01  7.20000000E-01  7.20000000E-01  8.50000000E-01
  7.20000000E-01  8.50000000E-01  8.50000000E-01  8.50000000E-01  7.20000000E-01
  7.20000000E-01  7.20000000E-01  7.20000000E-01  7.20000000E-01  8.50000000E-01
  7.20000000E-01  7.20000000E-01  7.20000000E-01  7.20000000E-01  7.20000000E-01
  8.50000000E-01  8.50000000E-01  7.20000000E-01  8.50000000E-01  7.20000000E-01
  7.20000000E-01  8.50000000E-01  8.50000000E-01  8.50000000E-01  7.20000000E-01
  7.20000000E-01  8.50000000E-01  7.20000000E-01  7.20000000E-01  8.50000000E-01
  7.20000000E-01  7.20000000E-01  8.50000000E-01  7.20000000E-01  7.20000000E-01
  8.50000000E-01  7.20000000E-01  8.50000000E-01  8.50000000E-01  8.50000000E-01
  7.20000000E-01  7.20000000E-01  7.20000000E-01  7.20000000E-01  7.20000000E-01
  8.50000000E-01  7.20000000E-01  7.20000000E-01  7.20000000E-01  7.20000000E-01
  7.20000000E-01  8.50000000E-01  8.50000000E-01  7.20000000E-01  8.50000000E-01
  7.20000000E-01  7.20000000E-01  8.50000000E-01  8.50000000E-01  8.50000000E-01
  7.20000000E-01  7.20000000E-01  8.50000000E-01  7.20000000E-01  7.20000000E-01
  8.50000000E-01  7.20000000E-01  7.20000000E-01  8.50000000E-01  7.20000000E-01
  7.20000000E-01  8.50000000E-01  7.20000000E-01  8.50000000E-01  8.50000000E-01
  8.50000000E-01  7.20000000E-01  7.20000000E-01  7.20000000E-01  7.20000000E-01
  7.20000000E-01  8.50000000E-01  7.20000000E-01  7.20000000E-01  7.20000000E-01
  7.20000000E-01  7.20000000E-01  8.50000000E-01  8.50000000E-01  7.20000000E-01
  8.50000000E-01  7.20000000E-01  7.20000000E-01  8.50000000E-01  8.50000000E-01
  8.50000000E-01  7.20000000E-01  7.20000000E-01  8.50000000E-01  7.20000000E-01
  7.20000000E-01  8.50000000E-01  7.20000000E-01  7.20000000E-01  8.50000000E-01
  7.20000000E-01  7.20000000E-01  8.50000000E-01  7.20000000E-01  8.50000000E-01
  8.50000000E-01  8.50000000E-01  7.20000000E-01  7.20000000E-01  7.20000000E-01
  7.20000000E-01  7.20000000E-01  8.50000000E-01  7.20000000E-01  7.20000000E-01
  7.20000000E-01  7.20000000E-01  7.20000000E-01  8.50000000E-01  8.50000000E-01
  7.20000000E-01  8.50000000E-01  7.20000000E-01  7.20000000E-01  8.50000000E-01
  8.50000000E-01  8.50000000E-01  7.20000000E-01  7.20000000E-01  8.50000000E-01
  7.20000000E-01  7.20000000E-01  8.50000000E-01  7.20000000E-01  7.20000000E-01
  8.50000000E-01  7.20000000E-01  7.20000000E-01  8.50000000E-01  7.20000000E-01
  8.50000000E-01  8.50000000E-01  8.50000000E-01  7.20000000E-01  7.20000000E-01
  7.20000000E-01  7.20000000E-01  7.20000000E-01  8.50000000E-01  7.20000000E-01
  7.20000000E-01  7.20000000E-01  7.20000000E-01  7.20000000E-01  8.50000000E-01
  8.50000000E-01  7.20000000E-01  8.50000000E-01  7.20000000E-01  7.20000000E-01
  8.50000000E-01  8.50000000E-01  8.50000000E-01  7.20000000E-01  7.20000000E-01
  8.50000000E-01  7.20000000E-01  7.20000000E-01  8.50000000E-01  7.20000000E-01
  7.20000000E-01  8.50000000E-01  7.20000000E-01  7.20000000E-01  8.50000000E-01
  7.20000000E-01  8.50000000E-01  8.50000000E-01  8.50000000E-01  7.20000000E-01
  7.20000000E-01  7.20000000E-01  7.20000000E-01  7.20000000E-01  8.50000000E-01
  7.20000000E-01  7.20000000E-01  7.20000000E-01  7.20000000E-01  7.20000000E-01
  8.50000000E-01  8.50000000E-01  7.20000000E-01  8.50000000E-01  7.20000000E-01
  7.20000000E-01  8.50000000E-01  8.50000000E-01  8.50000000E-01  7.20000000E-01
  7.20000000E-01  8.50000000E-01  7.20000000E-01  7.20000000E-01  8.50000000E-01
  7.20000000E-01  7.20000000E-01  8.50000000E-01  7.20000000E-01  7.20000000E-01
  8.50000000E-01  7.20000000E-01  8.50000000E-01  8.50000000E-01  8.50000000E-01
  7.20000000E-01  7.20000000E-01  7.20000000E-01  7.20000000E-01  7.20000000E-01
  8.50000000E-01  7.20000000E-01  7.20000000E-01  7.20000000E-01  7.20000000E-01
  7.20000000E-01  8.50000000E-01  8.50000000E-01  7.20000000E-01  8.50000000E-01
  7.20000000E-01  7.20000000E-01  8.50000000E-01  8.50000000E-01  8.50000000E-01
  7.20000000E-01  7.20000000E-01  8.50000000E-01  7.20000000E-01  7.20000000E-01
  8.50000000E-01  7.20000000E-01  7.20000000E-01  8.50000000E-01  7.20000000E-01
  7.20000000E-01  8.50000000E-01  7.20000000E-01  8.50000000E-01  8.50000000E-01
  8.50000000E-01  7.20000000E-01  7.20000000E-01  7.20000000E-01  7.20000000E-01
  7.20000000E-01  8.50000000E-01  7.20000000E-01  7.20000000E-01  7.20000000E-01
  7.20000000E-01  7.20000000E-01  8.50000000E-01  8.50000000E-01  7.20000000E-01
  8.50000000E-01  7.20000000E-01  7.20000000E-01  8.50000000E-01  8.50000000E-01
  8.50000000E-01  7.20000000E-01  7.20000000E-01  8.50000000E-01  7.20000000E-01
  7.20000000E-01  8.50000000E-01  7.20000000E-01  7.20000000E-01  8.50000000E-01
  7.20000000E-01  7.20000000E-01  8.50000000E-01  7.20000000E-01  8.50000000E-01
  8.50000000E-01  8.50000000E-01  7.20000000E-01  7.20000000E-01  7.20000000E-01
  7.20000000E-01  7.20000000E-01  8.50000000E-01  7.20000000E-01  7.20000000E-01
  7.20000000E-01  7.20000000E-01  7.20000000E-01  8.50000000E-01  8.50000000E-01
  7.20000000E-01  8.50000000E-01  7.20000000E-01  7.20000000E-01  8.50000000E-01
  8.50000000E-01  8.50000000E-01  7.20000000E-01  7.20000000E-01  8.50000000E-01
  7.20000000E-01  7.20000000E-01  8.50000000E-01  7.20000000E-01  7.20000000E-01
  8.50000000E-01  7.20000000E-01  7.20000000E-01  8.50000000E-01  7.20000000E-01
  8.50000000E-01  8.50000000E-01  8.50000000E-01  7.20000000E-01  7.20000000E-01
  7.20000000E-01  7.20000000E-01  7.20000000E-01  8.50000000E-01  7.20000000E-01
  7.20000000E-01  7.20000000E-01  7.20000000E-01  7.20000000E-01  8.50000000E-01
  8.50000000E-01  7.20000000E-01  8.50000000E-01  7.20000000E-01  7.20000000E-01
  8.50000000E-01  8.50000000E-01  8.50000000E-01  7.20000000E-01  7.20000000E-01
  8.50000000E-01  7.20000000E-01  7.20000000E-01  8.50000000E-01  7.20000000E-01
  7.20000000E-01  8.50000000E-01  7.20000000E-01  7.20000000E-01  8.50000000E-01
  7.20000000E-01  8.50000000E-01  8.50000000E-01  8.50000000E-01  7.20000000E-01
  7.20000000E-01  7.20000000E-01  7.20000000E-01  7.20000000E-01  8.50000000E-01
  7.20000000E-01  7.20000000E-01  7.20000000E-01  7.20000000E-01  7.20000000E-01
  8.50000000E-01  8.50000000E-01  7.20000000E-01  8.50000000E-01  7.20000000E-01
  7.20000000E-01  8.50000000E-01  8.50000000E-01  8.50000000E-01  7.20000000E-01
  7.20000000E-01  8.50000000E-01  7.20000000E-01  7.20000000E-01  8.50000000E-01
  7.20000000E-01  7.20000000E-01  8.50000000E-01  7.20000000E-01  7.20000000E-01
  8.50000000E-01  7.20000000E-01  8.50000000E-01  8.50000000E-01  8.50000000E-01
  7.20000000E-01  7.20000000E-01  7.20000000E-01  7.20000000E-01  7.20000000E-01
  8.50000000E-01  7.20000000E-01  7.20000000E-01  7.20000000E-01  7.20000000E-01
  7.20000000E-01  8.50000000E-01  8.50000000E-01  7.20000000E-01  8.50000000E-01
  7.20000000E-01  7.20000000E-01  8.50000000E-01  8.50000000E-01  8.50000000E-01
  7.20000000E-01  7.20000000E-01  8.50000000E-01  7.20000000E-01  7.20000000E-01
  8.50000000E-01  7.20000000E-01  7.20000000E-01  8.50000000E-01  7.20000000E-01
  7.20000000E-01  8.50000000E-01  7.20000000E-01  8.50000000E-01  8.50000000E-01
  8.50000000E-01  7.20000000E-01  7.20000000E-01  7.20000000E-01  7.20000000E-01
  7.20000000E-01  8.50000000E-01  7.20000000E-01  7.20000000E-01  7.20000000E-01
  7.20000000E-01  7.20000000E-01  8.50000000E-01  8.50000000E-01  7.20000000E-01
  8.50000000E-01  7.20000000E-01  7.20000000E-01  8.50000000E-01  8.50000000E-01
  8.50000000E-01  7.20000000E-01  7.20000000E-01  8.50000000E-01  7.20000000E-01
  7.20000000E-01  8.50000000E-01  7.20000000E-01  7.20000000E-01  8.50000000E-01
  7.20000000E-01  7.20000000E-01  8.50000000E-01  7.20000000E-01  8.50000000E-01
  8.50000000E-01  8.50000000E-01  7.20000000E-01  7.20000000E-01  7.20000000E-01
  7.20000000E-01  7.20000000E-01  8.50000000E-01  7.20000000E-01  7.20000000E-01
  7.20000000E-01  7.20000000E-01  7.20000000E-01  8.50000000E-01  8.50000000E-01
  7.20000000E-01  8.50000000E-01  7.20000000E-01  7.20000000E-01  8.50000000E-01
  8.50000000E-01  8.50000000E-01  7.20000000E-01  7.20000000E-01  8.50000000E-01
  7.20000000E-01  7.20000000E-01  8.50000000E-01  7.20000000E-01  7.20000000E-01
  8.50000000E-01  7.20000000E-01  7.20000000E-01  8.50000000E-01  7.20000000E-01
  8.50000000E-01  8.50000000E-01  8.50000000E-01  7.20000000E-01  7.20000000E-01
  7.20000000E-01  7.20000000E-01  7.20000000E-01  8.50000000E-01  7.20000000E-01
  7.20000000E-01  7.20000000E-01  7.20000000E-01  7.20000000E-01  8.50000000E-01
  8.50000000E-01  7.20000000E-01  8.50000000E-01  7.20000000E-01  7.20000000E-01
  8.50000000E-01  8.50000000E-01  8.50000000E-01  7.20000000E-01  7.20000000E-01
  8.50000000E-01  7.20000000E-01  7.20000000E-01  8.50000000E-01  7.20000000E-01
  7.20000000E-01  8.50000000E-01  7.20000000E-01  7.20000000E-01  8.50000000E-01
  7.20000000E-01  8.50000000E-01  8.50000000E-01  8.50000000E-01  7.20000000E-01
  7.20000000E-01  7.20000000E-01  7.20000000E-01  7.20000000E-01  8.50000000E-01
  7.20000000E-01  7.20000000E-01  7.20000000E-01  7.20000000E-01  7.20000000E-01
  8.50000000E-01  8.50000000E-01  7.20000000E-01  8.50000000E-01  7.20000000E-01
  7.20000000E-01  8.50000000E-01  8.50000000E-01  8.50000000E-01  7.20000000E-01
  7.20000000E-01  8.50000000E-01  7.20000000E-01  7.20000000E-01  8.50000000E-01
  7.20000000E-01  7.20000000E-01  8.50000000E-01  7.20000000E-01  7.20000000E-01
  8.50000000E-01  7.20000000E-01  8.50000000E-01  8.50000000E-01  8.50000000E-01
  7.20000000E-01  7.20000000E-01  7.20000000E-01  7.20000000E-01  7.20000000E-01
  8.50000000E-01  7.20000000E-01  7.20000000E-01  7.20000000E-01  7.20000000E-01
  7.20000000E-01  8.50000000E-01  8.50000000E-01  7.20000000E-01  8.50000000E-01
  7.20000000E-01  7.20000000E-01  8.50000000E-01  8.50000000E-01  8.50000000E-01
  7.20000000E-01  7.20000000E-01  8.50000000E-01  7.20000000E-01  7.20000000E-01
  8.50000000E-01  7.20000000E-01  7.20000000E-01  8.50000000E-01  7.20000000E-01
  7.20000000E-01  8.50000000E-01  7.20000000E-01  8.50000000E-01  8.50000000E-01
  8.50000000E-01  7.20000000E-01  7.20000000E-01  7.20000000E-01  7.20000000E-01
  7.20000000E-01  8.50000000E-01  7.20000000E-01  7.20000000E-01  7.20000000E-01
  7.20000000E-01  7.20000000E-01  8.50000000E-01  8.50000000E-01  7.20000000E-01
  8.50000000E-01  7.20000000E-01  7.20000000E-01  8.50000000E-01  8.50000000E-01
  8.50000000E-01  7.20000000E-01  7.20000000E-01  8.50000000E-01  7.20000000E-01
  7.20000000E-01  8.50000000E-01  7.20000000E-01  7.20000000E-01  8.50000000E-01
  7.20000000E-01  7.20000000E-01  8.50000000E-01  7.20000000E-01  8.50000000E-01
  8.50000000E-01  8.50000000E-01  7.20000000E-01  7.20000000E-01  7.20000000E-01
  7.20000000E-01  7.20000000E-01  8.50000000E-01  7.20000000E-01  7.20000000E-01
  7.20000000E-01  7.20000000E-01  7.20000000E-01  8.50000000E-01  8.50000000E-01
  7.20000000E-01  8.50000000E-01  7.20000000E-01  7.20000000E-01  8.50000000E-01
  8.50000000E-01  8.50000000E-01  7.20000000E-01  7.20000000E-01  8.50000000E-01
  7.20000000E-01  7.20000000E-01  8.50000000E-01  7.20000000E-01  7.20000000E-01
  8.50000000E-01  7.20000000E-01  7.20000000E-01  8.50000000E-01  7.20000000E-01
  8.50000000E-01  8.50000000E-01  8.50000000E-01  7.20000000E-01  7.20000000E-01
  7.20000000E-01  7.20000000E-01  7.20000000E-01  8.50000000E-01  7.20000000E-01
  7.20000000E-01  7.20000000E-01  7.20000000E-01  7.20000000E-01  8.50000000E-01
  8.50000000E-01  7.20000000E-01  8.50000000E-01  7.20000000E-01  7.20000000E-01
  8.50000000E-01  8.50000000E-01  8.50000000E-01  7.20000000E-01  7.20000000E-01
  8.50000000E-01  7.20000000E-01  7.20000000E-01  8.50000000E-01  7.20000000E-01
  7.20000000E-01  8.50000000E-01  7.20000000E-01  7.20000000E-01  8.50000000E-01
  7.20000000E-01  8.50000000E-01  8.50000000E-01  8.50000000E-01  7.20000000E-01
  7.20000000E-01  7.20000000E-01  7.20000000E-01  7.20000000E-01  8.50000000E-01
  7.20000000E-01  7.20000000E-01  7.20000000E-01  7.20000000E-01  7.20000000E-01
  8.50000000E-01  8.50000000E-01  7.20000000E-01  8.50000000E-01  7.20000000E-01
  7.20000000E-01  8.50000000E-01  8.50000000E-01  8.50000000E-01  7.20000000E-01
  7.20000000E-01  8.50000000E-01  7.20000000E-01  7.20000000E-01  8.50000000E-01
  7.20000000E-01  7.20000000E-01  8.50000000E-01  7.20000000E-01  7.20000000E-01
  8.50000000E-01  7.20000000E-01  8.50000000E-01  8.50000000E-01  8.50000000E-01
  7.20000000E-01  7.20000000E-01  7.20000000E-01  7.20000000E-01  7.20000000E-01
  8.50000000E-01  7.20000000E-01  7.20000000E-01  7.20000000E-01  7.20000000E-01
  7.20000000E-01  8.50000000E-01  8.50000000E-01  7.20000000E-01  8.50000000E-01
  7.20000000E-01  7.20000000E-01  8.50000000E-01  8.50000000E-01  8.50000000E-01
  7.20000000E-01  7.20000000E-01  8.50000000E-01  7.20000000E-01  7.20000000E-01
  8.50000000E-01  7.20000000E-01  7.20000000E-01  8.50000000E-01  7.20000000E-01
  7.20000000E-01  8.50000000E-01  7.20000000E-01  8.50000000E-01  8.50000000E-01
  8.50000000E-01  7.20000000E-01  7.20000000E-01  7.20000000E-01  7.20000000E-01
  7.20000000E-01  8.50000000E-01  7.20000000E-01  7.20000000E-01  7.20000000E-01
  7.20000000E-01  7.20000000E-01  8.50000000E-01  8.50000000E-01  7.20000000E-01
  8.50000000E-01  7.20000000E-01  7.20000000E-01  8.50000000E-01  8.50000000E-01
  8.50000000E-01  7.20000000E-01  7.20000000E-01  8.50000000E-01  7.20000000E-01
  7.20000000E-01  8.50000000E-01  7.20000000E-01  7.20000000E-01  8.50000000E-01
  7.20000000E-01  7.20000000E-01  8.50000000E-01  7.20000000E-01  8.50000000E-01
  8.50000000E-01  8.50000000E-01  7.20000000E-01  7.20000000E-01  7.20000000E-01
  7.20000000E-01  7.20000000E-01  8.50000000E-01  7.20000000E-01  7.20000000E-01
  7.20000000E-01  7.20000000E-01  7.20000000E-01  8.50000000E-01  8.50000000E-01
  7.20000000E-01  8.50000000E-01  7.20000000E-01  7.20000000E-01  8.50000000E-01
  8.50000000E-01  8.50000000E-01  7.20000000E-01  7.20000000E-01  8.50000000E-01
  7.20000000E-01  7.20000000E-01  8.50000000E-01  7.20000000E-01  7.20000000E-01
  8.50000000E-01  7.20000000E-01  7.20000000E-01  8.50000000E-01  7.20000000E-01
  8.50000000E-01  8.50000000E-01  8.50000000E-01  7.20000000E-01  7.20000000E-01
  7.20000000E-01  7.20000000E-01  7.20000000E-01  8.50000000E-01  7.20000000E-01
  7.20000000E-01  7.20000000E-01  7.20000000E-01  7.20000000E-01  8.50000000E-01
  8.50000000E-01  7.20000000E-01  8.50000000E-01  7.20000000E-01  7.20000000E-01
  8.50000000E-01  8.50000000E-01  8.50000000E-01  7.20000000E-01  7.20000000E-01
  8.50000000E-01  7.20000000E-01  7.20000000E-01  8.50000000E-01  7.20000000E-01
  7.20000000E-01  8.50000000E-01  7.20000000E-01  7.20000000E-01  8.50000000E-01
  7.20000000E-01  8.50000000E-01  8.50000000E-01  8.50000000E-01  7.20000000E-01
  7.20000000E-01  7.20000000E-01  7.20000000E-01  7.20000000E-01  8.50000000E-01
  7.20000000E-01  7.20000000E-01  7.20000000E-01  7.20000000E-01  7.20000000E-01
  8.50000000E-01  8.50000000E-01  7.20000000E-01  8.50000000E-01  7.20000000E-01
  7.20000000E-01  8.50000000E-01  8.50000000E-01  8.50000000E-01  7.20000000E-01
  7.20000000E-01  8.50000000E-01  7.20000000E-01  7.20000000E-01  8.50000000E-01
  7.20000000E-01  7.20000000E-01  8.50000000E-01  7.20000000E-01  7.20000000E-01
  8.50000000E-01  7.20000000E-01  8.50000000E-01  8.50000000E-01  8.50000000E-01
  7.20000000E-01  7.20000000E-01  7.20000000E-01  7.20000000E-01  7.20000000E-01
  8.50000000E-01  7.20000000E-01  7.20000000E-01  7.20000000E-01  7.20000000E-01
  7.20000000E-01  8.50000000E-01  8.50000000E-01  7.20000000E-01  8.50000000E-01
  7.20000000E-01  7.20000000E-01  8.50000000E-01  8.50000000E-01  8.50000000E-01
  7.20000000E-01  7.20000000E-01  8.50000000E-01  7.20000000E-01  7.20000000E-01
  8.50000000E-01  7.20000000E-01  7.20000000E-01  8.50000000E-01  7.20000000E-01
  7.20000000E-01  8.50000000E-01  7.20000000E-01  8.50000000E-01  8.50000000E-01
  8.50000000E-01  7.20000000E-01  7.20000000E-01  7.20000000E-01  7.20000000E-01
  7.20000000E-01  8.50000000E-01  7.20000000E-01  7.20000000E-01  7.20000000E-01
  7.20000000E-01  7.20000000E-01  8.50000000E-01  8.50000000E-01  7.20000000E-01
  8.50000000E-01  7.20000000E-01  7.20000000E-01  8.50000000E-01  8.50000000E-01
  8.50000000E-01  7.20000000E-01  7.20000000E-01  8.50000000E-01  7.20000000E-01
  7.20000000E-01  8.50000000E-01  7.20000000E-01  7.20000000E-01  8.50000000E-01
  7.20000000E-01  7.20000000E-01  8.50000000E-01  7.20000000E-01  8.50000000E-01
  8.50000000E-01  8.50000000E-01  7.20000000E-01  7.20000000E-01  7.20000000E-01
  7.20000000E-01  7.20000000E-01  8.50000000E-01  7.20000000E-01  7.20000000E-01
  7.20000000E-01  7.20000000E-01  7.20000000E-01  8.50000000E-01  8.50000000E-01
  7.20000000E-01  8.50000000E-01  7.20000000E-01  7.20000000E-01  8.50000000E-01
  8.50000000E-01  8.50000000E-01  7.20000000E-01  7.20000000E-01  8.50000000E-01
  7.20000000E-01  7.20000000E-01  8.50000000E-01  7.20000000E-01  7.20000000E-01
  8.50000000E-01  7.20000000E-01  7.20000000E-01  8.50000000E-01  7.20000000E-01
  8.50000000E-01  8.50000000E-01  8.50000000E-01  7.20000000E-01  7.20000000E-01
  7.20000000E-01  7.20000000E-01  7.20000000E-01  8.50000000E-01  7.20000000E-01
  7.20000000E-01  7.20000000E-01  7.20000000E-01  7.20000000E-01  8.50000000E-01
  8.50000000E-01  7.20000000E-01  8.50000000E-01  7.20000000E-01  7.20000000E-01
  8.50000000E-01  8.50000000E-01  8.50000000E-01  7.20000000E-01  7.20000000E-01
  8.50000000E-01  7.20000000E-01  7.20000000E-01  8.50000000E-01  7.20000000E-01
  7.20000000E-01  8.50000000E-01  7.20000000E-01  7.20000000E-01  8.50000000E-01
  7.20000000E-01  8.50000000E-01  8.50000000E-01  8.50000000E-01  7.20000000E-01
  7.20000000E-01  7.20000000E-01  7.20000000E-01  7.20000000E-01  8.50000000E-01
  7.20000000E-01  7.20000000E-01  7.20000000E-01  7.20000000E-01  7.20000000E-01
  8.50000000E-01  8.50000000E-01  7.20000000E-01  8.50000000E-01  7.20000000E-01
  7.20000000E-01  8.50000000E-01  8.50000000E-01  8.50000000E-01  7.20000000E-01
  7.20000000E-01  8.50000000E-01  7.20000000E-01  7.20000000E-01  8.50000000E-01
  7.20000000E-01  7.20000000E-01  8.50000000E-01  7.20000000E-01  7.20000000E-01
  8.50000000E-01  7.20000000E-01  8.50000000E-01  8.50000000E-01  8.50000000E-01
  7.20000000E-01  7.20000000E-01  7.20000000E-01  7.20000000E-01  7.20000000E-01
  8.50000000E-01  7.20000000E-01  7.20000000E-01  7.20000000E-01  7.20000000E-01
  7.20000000E-01  8.50000000E-01  8.50000000E-01  7.20000000E-01  8.50000000E-01
  7.20000000E-01  7.20000000E-01  8.50000000E-01  8.50000000E-01  8.50000000E-01
  7.20000000E-01  7.20000000E-01  8.50000000E-01  7.20000000E-01  7.20000000E-01
  8.50000000E-01  7.20000000E-01  7.20000000E-01  8.50000000E-01  7.20000000E-01
  7.20000000E-01  8.50000000E-01  7.20000000E-01  8.50000000E-01  8.50000000E-01
  8.50000000E-01  7.20000000E-01  7.20000000E-01  7.20000000E-01  7.20000000E-01
  7.20000000E-01  8.50000000E-01  7.20000000E-01  7.20000000E-01  7.20000000E-01
  7.20000000E-01  7.20000000E-01  8.50000000E-01  8.50000000E-01  7.20000000E-01
  8.50000000E-01  7.20000000E-01  7.20000000E-01  8.50000000E-01  8.50000000E-01
  8.50000000E-01  7.20000000E-01  7.20000000E-01  8.50000000E-01  7.20000000E-01
  7.20000000E-01  8.50000000E-01  7.20000000E-01  7.20000000E-01  8.50000000E-01
  7.20000000E-01  7.20000000E-01  8.50000000E-01  7.20000000E-01  8.50000000E-01
  8.50000000E-01  8.50000000E-01  7.20000000E-01  7.20000000E-01  7.20000000E-01
  7.20000000E-01  7.20000000E-01  8.50000000E-01  7.20000000E-01  7.20000000E-01
  7.20000000E-01  7.20000000E-01  7.20000000E-01  8.50000000E-01  8.50000000E-01
  7.20000000E-01  8.50000000E-01  7.20000000E-01  7.20000000E-01  8.50000000E-01
  8.50000000E-01  8.50000000E-01  7.20000000E-01  7.20000000E-01  8.50000000E-01
  7.20000000E-01  7.20000000E-01  8.50000000E-01  7.20000000E-01  7.20000000E-01
  8.50000000E-01  7.20000000E-01  7.20000000E-01  8.50000000E-01  7.20000000E-01
  8.50000000E-01  8.50000000E-01  8.50000000E-01  7.20000000E-01  7.20000000E-01
  7.20000000E-01  7.20000000E-01  7.20000000E-01  8.50000000E-01  7.20000000E-01
  7.20000000E-01  7.20000000E-01  7.20000000E-01  7.20000000E-01  8.50000000E-01
  8.50000000E-01  7.20000000E-01  8.50000000E-01  7.20000000E-01  7.20000000E-01
  8.50000000E-01  8.50000000E-01  8.50000000E-01  7.20000000E-01  7.20000000E-01
  8.50000000E-01  7.20000000E-01  7.20000000E-01  8.50000000E-01  7.20000000E-01
  7.20000000E-01  8.50000000E-01  7.20000000E-01  7.20000000E-01  8.50000000E-01
  7.20000000E-01  8.50000000E-01  8.50000000E-01  8.50000000E-01  7.20000000E-01
  7.20000000E-01  7.20000000E-01  7.20000000E-01  7.20000000E-01  8.50000000E-01
  7.20000000E-01  7.20000000E-01  7.20000000E-01  7.20000000E-01  7.20000000E-01
  8.50000000E-01  8.50000000E-01  7.20000000E-01  8.50000000E-01  7.20000000E-01
  7.20000000E-01  8.50000000E-01  8.50000000E-01  8.50000000E-01  7.20000000E-01
  7.20000000E-01  8.50000000E-01  7.20000000E-01  7.20000000E-01  8.50000000E-01
  7.20000000E-01  7.20000000E-01  8.50000000E-01  7.20000000E-01  7.20000000E-01
  8.50000000E-01  7.20000000E-01  8.50000000E-01  8.50000000E-01  8.50000000E-01
  7.20000000E-01  7.20000000E-01  7.20000000E-01  7.20000000E-01  7.20000000E-01
  8.50000000E-01  7.20000000E-01  7.20000000E-01  7.20000000E-01  7.20000000E-01
  7.20000000E-01  8.50000000E-01  8.50000000E-01  7.20000000E-01  8.50000000E-01
  7.20000000E-01  7.20000000E-01  8.50000000E-01  8.50000000E-01  8.50000000E-01
  7.20000000E-01  7.20000000E-01  8.50000000E-01  7.20000000E-01  7.20000000E-01
  8.50000000E-01  7.20000000E-01  7.20000000E-01  8.50000000E-01  7.20000000E-01
  7.20000000E-01  8.50000000E-01  7.20000000E-01  8.50000000E-01  8.50000000E-01
  8.50000000E-01  7.20000000E-01  7.20000000E-01  7.20000000E-01  7.20000000E-01
  7.20000000E-01  8.50000000E-01  7.20000000E-01  7.20000000E-01  7.20000000E-01
  7.20000000E-01  7.20000000E-01  8.50000000E-01  8.50000000E-01  7.20000000E-01
  8.50000000E-01  7.20000000E-01  7.20000000E-01  8.50000000E-01  8.50000000E-01
  8.50000000E-01  7.20000000E-01  7.20000000E-01  8.50000000E-01  7.20000000E-01
  7.20000000E-01  8.50000000E-01  7.20000000E-01  7.20000000E-01  8.50000000E-01
  7.20000000E-01  7.20000000E-01  8.50000000E-01  7.20000000E-01  8.50000000E-01
  8.50000000E-01  8.50000000E-01  7.20000000E-01  7.20000000E-01  7.20000000E-01
  7.20000000E-01  7.20000000E-01  8.50000000E-01  7.20000000E-01  7.20000000E-01
  7.20000000E-01  7.20000000E-01  7.20000000E-01  8.50000000E-01  8.50000000E-01
  7.20000000E-01  8.50000000E-01  7.20000000E-01  7.20000000E-01  8.50000000E-01
  8.50000000E-01  8.50000000E-01  7.20000000E-01  7.20000000E-01  8.50000000E-01
  7.20000000E-01  7.20000000E-01  8.50000000E-01  7.20000000E-01  7.20000000E-01
  8.50000000E-01  7.20000000E-01  7.20000000E-01  8.50000000E-01  7.20000000E-01
  8.50000000E-01  8.50000000E-01  8.50000000E-01  7.20000000E-01  7.20000000E-01
  7.20000000E-01  7.20000000E-01  7.20000000E-01  8.50000000E-01  7.20000000E-01
  7.20000000E-01  7.20000000E-01  7.20000000E-01  7.20000000E-01  8.50000000E-01
  8.50000000E-01  7.20000000E-01  8.50000000E-01  7.20000000E-01  7.20000000E-01
  8.50000000E-01  8.50000000E-01  8.50000000E-01  7.20000000E-01  7.20000000E-01
  8.50000000E-01  7.20000000E-01  7.20000000E-01  8.50000000E-01  7.20000000E-01
  7.20000000E-01  8.50000000E-01  7.20000000E-01  7.20000000E-01  8.50000000E-01
  7.20000000E-01  8.50000000E-01  8.50000000E-01  8.50000000E-01  7.20000000E-01
  7.20000000E-01  7.20000000E-01  7.20000000E-01  7.20000000E-01  8.50000000E-01
  7.20000000E-01  7.20000000E-01  7.20000000E-01  7.20000000E-01  7.20000000E-01
  8.50000000E-01  8.50000000E-01  7.20000000E-01  8.50000000E-01  7.20000000E-01
  7.20000000E-01  8.50000000E-01  8.50000000E-01  8.50000000E-01  7.20000000E-01
  7.20000000E-01  8.50000000E-01  7.20000000E-01  7.20000000E-01  8.50000000E-01
  7.20000000E-01  7.20000000E-01  8.50000000E-01  7.20000000E-01  7.20000000E-01
  8.50000000E-01  7.20000000E-01  8.50000000E-01  8.50000000E-01  8.50000000E-01
  7.20000000E-01  7.20000000E-01  7.20000000E-01  7.20000000E-01  7.20000000E-01
  8.50000000E-01  7.20000000E-01  7.20000000E-01  7.20000000E-01  7.20000000E-01
  7.20000000E-01  8.50000000E-01  8.50000000E-01  7.20000000E-01  8.50000000E-01
  7.20000000E-01  7.20000000E-01  8.50000000E-01  8.50000000E-01  8.50000000E-01
  7.20000000E-01  7.20000000E-01  8.50000000E-01  7.20000000E-01  7.20000000E-01
  8.50000000E-01  7.20000000E-01  7.20000000E-01  8.50000000E-01  7.20000000E-01
  7.20000000E-01  8.50000000E-01  7.20000000E-01  8.50000000E-01  8.50000000E-01
  8.50000000E-01  7.20000000E-01  7.20000000E-01  7.20000000E-01  7.20000000E-01
  7.20000000E-01  8.50000000E-01  7.20000000E-01  7.20000000E-01  7.20000000E-01
  7.20000000E-01  7.20000000E-01  8.50000000E-01  8.50000000E-01  7.20000000E-01
  8.50000000E-01  7.20000000E-01  7.20000000E-01  8.50000000E-01  8.50000000E-01
  8.50000000E-01  7.20000000E-01  7.20000000E-01  8.50000000E-01  7.20000000E-01
  7.20000000E-01  8.50000000E-01  7.20000000E-01  7.20000000E-01  8.50000000E-01
  7.20000000E-01  7.20000000E-01  8.50000000E-01  7.20000000E-01  8.50000000E-01
  8.50000000E-01  8.50000000E-01  7.20000000E-01  7.20000000E-01  7.20000000E-01
  7.20000000E-01  7.20000000E-01  8.50000000E-01  7.20000000E-01  7.20000000E-01
  7.20000000E-01  7.20000000E-01  7.20000000E-01  8.50000000E-01  8.50000000E-01
  7.20000000E-01  8.50000000E-01  7.20000000E-01  7.20000000E-01  8.50000000E-01
  8.50000000E-01  8.50000000E-01  7.20000000E-01  7.20000000E-01  8.50000000E-01
  7.20000000E-01  7.20000000E-01  8.50000000E-01  7.20000000E-01  7.20000000E-01
  8.50000000E-01  7.20000000E-01  7.20000000E-01  8.50000000E-01  7.20000000E-01
  8.50000000E-01  8.50000000E-01  8.50000000E-01  7.20000000E-01  7.20000000E-01
  7.20000000E-01  7.20000000E-01  7.20000000E-01  8.50000000E-01  7.20000000E-01
  7.20000000E-01  7.20000000E-01  7.20000000E-01  7.20000000E-01  8.50000000E-01
  8.50000000E-01  7.20000000E-01  8.50000000E-01  7.20000000E-01  7.20000000E-01
  8.50000000E-01  8.50000000E-01  8.50000000E-01  7.20000000E-01  7.20000000E-01
  8.50000000E-01  7.20000000E-01  7.20000000E-01  8.50000000E-01  7.20000000E-01
  7.20000000E-01  8.50000000E-01  7.20000000E-01  7.20000000E-01  8.50000000E-01
  7.20000000E-01  8.50000000E-01  8.50000000E-01  8.50000000E-01  7.20000000E-01
  7.20000000E-01  7.20000000E-01  7.20000000E-01  7.20000000E-01  8.50000000E-01
  7.20000000E-01  7.20000000E-01  7.20000000E-01  7.20000000E-01  7.20000000E-01
  8.50000000E-01  8.50000000E-01  7.20000000E-01  8.50000000E-01  7.20000000E-01
  7.20000000E-01  8.50000000E-01  8.50000000E-01  8.50000000E-01  7.20000000E-01
  7.20000000E-01  8.50000000E-01  7.20000000E-01  7.20000000E-01  8.50000000E-01
  7.20000000E-01  7.20000000E-01  8.50000000E-01  7.20000000E-01  7.20000000E-01
  8.50000000E-01  7.20000000E-01  8.50000000E-01  8.50000000E-01  8.50000000E-01
  7.20000000E-01  7.20000000E-01  7.20000000E-01  7.20000000E-01  7.20000000E-01
  8.50000000E-01  7.20000000E-01  7.20000000E-01  7.20000000E-01  7.20000000E-01
  7.20000000E-01  8.50000000E-01  8.50000000E-01  7.20000000E-01  8.50000000E-01
  7.20000000E-01  7.20000000E-01  8.50000000E-01  8.50000000E-01  8.50000000E-01
  7.20000000E-01  7.20000000E-01  8.50000000E-01  7.20000000E-01  7.20000000E-01
  8.50000000E-01  7.20000000E-01  7.20000000E-01  8.50000000E-01  7.20000000E-01
  7.20000000E-01  8.50000000E-01  7.20000000E-01  8.50000000E-01  8.50000000E-01
  8.50000000E-01  7.20000000E-01  7.20000000E-01  7.20000000E-01  7.20000000E-01
  7.20000000E-01  8.50000000E-01  7.20000000E-01  7.20000000E-01  7.20000000E-01
  7.20000000E-01  7.20000000E-01  8.50000000E-01  8.50000000E-01  7.20000000E-01
  8.50000000E-01  7.20000000E-01  7.20000000E-01  8.50000000E-01  8.50000000E-01
  8.50000000E-01  7.20000000E-01  7.20000000E-01  8.50000000E-01  7.20000000E-01
  7.20000000E-01  8.50000000E-01  7.20000000E-01  7.20000000E-01  8.50000000E-01
  7.20000000E-01  7.20000000E-01  8.50000000E-01  7.20000000E-01  8.50000000E-01
  8.50000000E-01  8.50000000E-01  7.20000000E-01  7.20000000E-01  7.20000000E-01
  7.20000000E-01  7.20000000E-01  8.50000000E-01  7.20000000E-01  7.20000000E-01
  7.20000000E-01  7.20000000E-01  7.20000000E-01  8.50000000E-01  8.50000000E-01
  7.20000000E-01  8.50000000E-01  7.20000000E-01  7.20000000E-01  8.50000000E-01
  8.50000000E-01  8.50000000E-01  7.20000000E-01  7.20000000E-01  8.50000000E-01
  7.20000000E-01  7.20000000E-01  8.50000000E-01  7.20000000E-01  7.20000000E-01
  8.50000000E-01  7.20000000E-01  7.20000000E-01  8.50000000E-01  7.20000000E-01
  8.50000000E-01  8.50000000E-01  8.50000000E-01  7.20000000E-01  7.20000000E-01
  7.20000000E-01  7.20000000E-01  7.20000000E-01  8.50000000E-01  7.20000000E-01
  7.20000000E-01  7.20000000E-01  7.20000000E-01  7.20000000E-01  8.50000000E-01
  8.50000000E-01  7.20000000E-01  8.50000000E-01  7.20000000E-01  7.20000000E-01
  8.50000000E-01  8.50000000E-01  8.50000000E-01  7.20000000E-01  7.20000000E-01
  8.50000000E-01  7.20000000E-01  7.20000000E-01  8.50000000E-01  7.20000000E-01
  7.20000000E-01  8.50000000E-01  7.20000000E-01  7.20000000E-01  8.50000000E-01
  7.20000000E-01  8.50000000E-01  8.50000000E-01  8.50000000E-01  7.20000000E-01
  7.20000000E-01  7.20000000E-01  7.20000000E-01  7.20000000E-01  8.50000000E-01
  7.20000000E-01  7.20000000E-01  7.20000000E-01  7.20000000E-01  7.20000000E-01
  8.50000000E-01  8.50000000E-01  7.20000000E-01  8.50000000E-01  7.20000000E-01
  7.20000000E-01  8.50000000E-01  8.50000000E-01  8.50000000E-01  7.20000000E-01
  7.20000000E-01  8.50000000E-01  7.20000000E-01  7.20000000E-01  8.50000000E-01
  7.20000000E-01  7.20000000E-01  8.50000000E-01  7.20000000E-01  7.20000000E-01
  8.50000000E-01  7.20000000E-01  8.50000000E-01  8.50000000E-01  8.50000000E-01
  7.20000000E-01  7.20000000E-01  7.20000000E-01  7.20000000E-01  7.20000000E-01
  8.50000000E-01  7.20000000E-01  7.20000000E-01  7.20000000E-01  7.20000000E-01
  7.20000000E-01  8.50000000E-01  8.50000000E-01  7.20000000E-01  8.50000000E-01
  7.20000000E-01  7.20000000E-01  8.50000000E-01  8.50000000E-01  8.50000000E-01
  7.20000000E-01  7.20000000E-01  8.50000000E-01  7.20000000E-01  7.20000000E-01
  8.50000000E-01  7.20000000E-01  7.20000000E-01  8.50000000E-01  7.20000000E-01
  7.20000000E-01  8.50000000E-01  7.20000000E-01  8.50000000E-01  8.50000000E-01
  8.50000000E-01  7.20000000E-01  7.20000000E-01  7.20000000E-01  7.20000000E-01
  7.20000000E-01  8.50000000E-01  7.20000000E-01  7.20000000E-01  7.20000000E-01
  7.20000000E-01  7.20000000E-01  8.50000000E-01  8.50000000E-01  7.20000000E-01
  8.50000000E-01  7.20000000E-01  7.20000000E-01  8.50000000E-01  8.50000000E-01
  8.50000000E-01  7.20000000E-01  7.20000000E-01  8.50000000E-01  7.20000000E-01
  7.20000000E-01  8.50000000E-01  7.20000000E-01  7.20000000E-01  8.50000000E-01
  7.20000000E-01  7.20000000E-01  8.50000000E-01  7.20000000E-01  8.50000000E-01
  8.50000000E-01  8.50000000E-01  7.20000000E-01  7.20000000E-01  7.20000000E-01
  7.20000000E-01  7.20000000E-01  8.50000000E-01  7.20000000E-01  7.20000000E-01
  7.20000000E-01  7.20000000E-01  7.20000000E-01  8.50000000E-01  8.50000000E-01
  7.20000000E-01  8.50000000E-01  7.20000000E-01  7.20000000E-01  8.50000000E-01
  8.50000000E-01  8.50000000E-01  7.20000000E-01  7.20000000E-01  8.50000000E-01
  7.20000000E-01  7.20000000E-01  8.50000000E-01  7.20000000E-01  7.20000000E-01
  8.50000000E-01  7.20000000E-01  7.20000000E-01  8.50000000E-01  7.20000000E-01
  8.50000000E-01  8.50000000E-01  8.50000000E-01  7.20000000E-01  7.20000000E-01
  7.20000000E-01  7.20000000E-01  7.20000000E-01  8.50000000E-01  7.20000000E-01
  7.20000000E-01  7.20000000E-01  7.20000000E-01  7.20000000E-01  8.50000000E-01
  8.50000000E-01  7.20000000E-01  8.50000000E-01  7.20000000E-01  7.20000000E-01
  8.50000000E-01  8.50000000E-01  8.50000000E-01  7.20000000E-01  7.20000000E-01
  8.50000000E-01  7.20000000E-01  7.20000000E-01  8.50000000E-01  7.20000000E-01
  7.20000000E-01  8.50000000E-01  7.20000000E-01  7.20000000E-01  8.50000000E-01
  7.20000000E-01  8.50000000E-01  8.50000000E-01  8.50000000E-01  7.20000000E-01
  7.20000000E-01  7.20000000E-01  7.20000000E-01  7.20000000E-01  8.50000000E-01
  7.20000000E-01  7.20000000E-01  7.20000000E-01  7.20000000E-01  7.20000000E-01
  8.50000000E-01  8.50000000E-01  7.20000000E-01  8.50000000E-01  7.20000000E-01
  7.20000000E-01  8.50000000E-01  8.50000000E-01  8.50000000E-01  7.20000000E-01
  7.20000000E-01  8.50000000E-01  7.20000000E-01  7.20000000E-01  8.50000000E-01
  7.20000000E-01  7.20000000E-01  8.50000000E-01  7.20000000E-01  7.20000000E-01
  8.50000000E-01  7.20000000E-01  8.50000000E-01  8.50000000E-01  8.50000000E-01
  7.20000000E-01  7.20000000E-01  7.20000000E-01  7.20000000E-01  7.20000000E-01
  8.50000000E-01  7.20000000E-01  7.20000000E-01  7.20000000E-01  7.20000000E-01
  7.20000000E-01  8.50000000E-01  8.50000000E-01  7.20000000E-01  8.50000000E-01
  7.20000000E-01  7.20000000E-01  8.50000000E-01  8.50000000E-01  8.50000000E-01
  7.20000000E-01  7.20000000E-01  8.50000000E-01  7.20000000E-01  7.20000000E-01
  8.50000000E-01  7.20000000E-01  7.20000000E-01  8.50000000E-01  7.20000000E-01
  7.20000000E-01  8.50000000E-01  7.20000000E-01  8.50000000E-01  8.50000000E-01
  8.50000000E-01  7.20000000E-01  7.20000000E-01  7.20000000E-01  7.20000000E-01
  7.20000000E-01  8.50000000E-01  7.20000000E-01  7.20000000E-01  7.20000000E-01
  7.20000000E-01  7.20000000E-01  8.50000000E-01  8.50000000E-01  7.20000000E-01
  8.50000000E-01  7.20000000E-01  7.20000000E-01  8.50000000E-01  8.50000000E-01
  8.50000000E-01  7.20000000E-01  7.20000000E-01  8.50000000E-01  7.20000000E-01
  7.20000000E-01  8.50000000E-01  7.20000000E-01  7.20000000E-01  8.50000000E-01
  7.20000000E-01  7.20000000E-01  8.50000000E-01  7.20000000E-01  8.50000000E-01
  8.50000000E-01  8.50000000E-01  7.20000000E-01  7.20000000E-01  7.20000000E-01
  7.20000000E-01  7.20000000E-01  8.50000000E-01  7.20000000E-01  7.20000000E-01
  7.20000000E-01  7.20000000E-01  7.20000000E-01  8.50000000E-01  8.50000000E-01
  7.20000000E-01  8.50000000E-01  7.20000000E-01  7.20000000E-01  8.50000000E-01
  8.50000000E-01  8.50000000E-01  7.20000000E-01  7.20000000E-01  8.50000000E-01
  7.20000000E-01  7.20000000E-01  8.50000000E-01  7.20000000E-01  7.20000000E-01
  8.50000000E-01  7.20000000E-01  7.20000000E-01  8.50000000E-01  7.20000000E-01
  8.50000000E-01  8.50000000E-01  8.50000000E-01  7.20000000E-01  7.20000000E-01
  7.20000000E-01  7.20000000E-01  7.20000000E-01  8.50000000E-01  7.20000000E-01
  7.20000000E-01  7.20000000E-01  7.20000000E-01  7.20000000E-01  8.50000000E-01
  8.50000000E-01  7.20000000E-01  8.50000000E-01  7.20000000E-01  7.20000000E-01
  8.50000000E-01  8.50000000E-01  8.50000000E-01  7.20000000E-01  7.20000000E-01
  8.50000000E-01  7.20000000E-01  7.20000000E-01  8.50000000E-01  7.20000000E-01
  7.20000000E-01  8.50000000E-01  7.20000000E-01  7.20000000E-01  8.50000000E-01
  7.20000000E-01  8.50000000E-01  8.50000000E-01  8.50000000E-01  7.20000000E-01
  7.20000000E-01  7.20000000E-01  7.20000000E-01  7.20000000E-01  8.50000000E-01
  7.20000000E-01  7.20000000E-01  7.20000000E-01  7.20000000E-01  7.20000000E-01
  8.50000000E-01  8.50000000E-01  7.20000000E-01  8.50000000E-01  7.20000000E-01
  7.20000000E-01  8.50000000E-01  8.50000000E-01  8.50000000E-01  7.20000000E-01
  7.20000000E-01  8.50000000E-01  7.20000000E-01  7.20000000E-01  8.50000000E-01
  7.20000000E-01  7.20000000E-01  8.50000000E-01  7.20000000E-01  7.20000000E-01
  8.50000000E-01  7.20000000E-01  8.50000000E-01  8.50000000E-01  8.50000000E-01
%FLAG IPOL
%FORMAT(1I8)
       0
